1
Lattice="20.0 0.0 0.0 0.0 20.0 0.0 0.0 0.0 20.0" Properties=species:S:1:pos:R:3:REF_forces:R:3:map_shift:I:3:n_neighb:I:1:force:R:3 REF_virial="-0.00064487 -0.0 -0.0 -0.0 -0.00064487 -0.0 -0.0 -0.0 -0.00064487" REF_energy=-0.27567309 config_type=IsolatedAtom data_type=iso_atoms cutoff=5.0 nneightol=1.2 energy=-0.27567309 pbc="T T T"
Cl      10.00000000      10.00000000      10.00000000      -0.00000000       0.00000000       0.00000000       -1       -1       -1        0       0.00000000       0.00000000       0.00000000
1
Lattice="20.0 0.0 0.0 0.0 20.0 0.0 0.0 0.0 20.0" Properties=species:S:1:pos:R:3:REF_forces:R:3:map_shift:I:3:n_neighb:I:1:force:R:3 REF_virial="-0.02475762 -0.0 -0.0 -0.0 -0.02475762 -0.0 -0.0 -0.0 -0.02475762" REF_energy=-0.28663766 config_type=IsolatedAtom data_type=iso_atoms cutoff=5.0 nneightol=1.2 energy=-0.28663766 pbc="T T T"
Li      10.00000000      10.00000000      10.00000000       0.00000000       0.00000000      -0.00000000       -1       -1       -1        0       0.00000000       0.00000000       0.00000000
64
Lattice="9.91427712 0.0 0.0 0.0 9.91427712 0.0 0.0 0.0 9.91427712" Properties=species:S:1:pos:R:3:REF_forces:R:3:map_shift:I:3:n_neighb:I:1:force:R:3 REF_virial="15.31948481 0.00331087 0.00456197 0.00331087 15.30964083 -0.00105156 0.00456197 -0.00105156 15.3233465" REF_energy=-243.90847635 config_type=test data_type=rand_struc cutoff=5.0 nneightol=1.2 energy=-243.9085267587527 pbc="T T T"
Li       0.01448238       9.89669465       9.90569641      -0.03271956       0.04525130       0.04435419        0       -1       -1       32      -0.04519520       0.03218158       0.04866353
Li       4.96332081       0.00491639       9.90916542       0.00092354      -0.02342566       0.01728165       -1        0       -1       32      -0.00681701      -0.02447943       0.01569080
Li       0.00533150       4.97999533       9.90402596       0.00639067      -0.05105727       0.01869917        0       -1       -1       32      -0.00278393      -0.04698138       0.01867384
Li       4.96260123       4.95575235       0.00253716      -0.01711042       0.01524783      -0.00788185       -1        0        0       32      -0.01919898       0.01250256      -0.00620856
Li       9.91386469       9.90039227       4.95658812      -0.00232238       0.04489079       0.00422954       -1       -1        0       32       0.00260479       0.04786899       0.01096423
Li       4.94847903       9.90329944       4.95818640       0.02338293       0.03702372      -0.00085562        0       -1       -1       32       0.02846294       0.03002380       0.00343426
Li       9.89995773       4.95370911       4.96679437       0.03235020      -0.01484770      -0.02379900       -1        0       -1       32       0.04464775      -0.00699080      -0.01395638
Li       4.94324717       4.97011109       4.95294165       0.03694197      -0.04634983      -0.00807465        0       -1        0       32       0.05256438      -0.04246162      -0.00210502
Li       0.00581740       2.49020587       2.47718703      -0.00132607      -0.05361209       0.00382113        0        0        0       32      -0.00105766      -0.05089606      -0.00232627
Li       4.95126167       2.48743750       2.47529202       0.01186504      -0.02643365       0.02018680        0        0        0       32       0.01323037      -0.02867213       0.01912389
Li       0.01687945       7.42226953       2.48033283      -0.05818730       0.02243418       0.00660288        0       -1        0       32      -0.05592839       0.01610555       0.02055571
Li       4.94413599       7.42898318       2.48806051       0.02929209       0.01129510      -0.02585523        0       -1        0       32       0.02640598       0.00897325      -0.01482430
Li       9.90963288       2.48351997       7.45412976       0.01237664      -0.01135657      -0.02391117       -1        0       -1       32       0.01600887      -0.00942097      -0.02952933
Li       4.95253050       2.48557144       7.44068659       0.00956278      -0.00824937      -0.01836841        0        0       -1       32       0.01552722      -0.00745593      -0.01984911
Li       9.90987845       7.43212056       7.42745728       0.01731370       0.02120060       0.03246429       -1       -1       -1       32       0.01730044       0.01947964       0.03654507
Li       4.95982374       7.43130431       7.42293776      -0.01287148       0.02328475       0.05435438       -1       -1       -1       32      -0.00607953       0.02298513       0.05463511
Li       2.49184886       9.90269675       2.45454778      -0.02995853       0.03744644       0.04309858        0       -1        0       32      -0.03083977       0.04667468       0.06307069
Li       7.43344461       0.01210315       2.47670678       0.01906274      -0.02337466      -0.00251466       -1        0        0       32       0.01556443      -0.02847178       0.01284696
Li       2.48231618       4.94392798       2.47672027      -0.00651955       0.00197821      -0.01957774        0        0        0       32      -0.01011825       0.00802645      -0.01515223
Li       7.43370654       4.95421653       2.48097121       0.00153598       0.00659273      -0.00271946       -1        0        0       32       0.00510360      -0.00475664      -0.01040040
Li       2.48758770       9.90587368       7.42658809      -0.03231618       0.01455644       0.02079545        0       -1       -1       32      -0.03922695       0.01110611       0.03867028
Li       7.44468928       9.91151332       7.42041507      -0.02167614       0.01831150       0.02364787       -1       -1       -1       32      -0.02805792       0.01355978       0.03152467
Li       2.49015738       4.96752307       7.43282060      -0.00827255      -0.01987804       0.00360855        0       -1       -1       32      -0.00777118      -0.01641264       0.00176962
Li       7.42807335       4.96480924       7.44998906       0.02046043      -0.01872470      -0.02110617       -1       -1       -1       32       0.02033887      -0.01808035      -0.02552432
Li       2.49106633       2.47413700       9.89914724      -0.05060270       0.01122890       0.02974461        0        0       -1       32      -0.05524798       0.01346555       0.02811418
Li       7.43658902       2.48145741       9.90072579       0.00673999      -0.03332926       0.03787966       -1        0       -1       32       0.00098495      -0.03057633       0.04670599
Li       2.46694866       7.43169682       0.01572930       0.03317147       0.00338132      -0.02797882        0       -1        0       32       0.04370668       0.00672823      -0.02677984
Li       7.42279301       7.43218649       0.00892860       0.00958555       0.01260833       0.01393638       -1       -1        0       32       0.02140734       0.01408196       0.01304827
Li       2.47454617       2.47558290       4.96428745      -0.00085619      -0.00240978      -0.01963360        0        0       -1       32       0.00279124      -0.00061474      -0.01146775
Li       7.41953904       2.49659225       4.95557637       0.02377845      -0.05768778       0.00929156       -1        0        0       33       0.03047925      -0.05522966       0.02195123
Li       2.48195263       7.42637157       4.94374745      -0.00031289       0.01890713       0.03988360        0       -1        0       32      -0.00825508       0.02125943       0.03538434
Li       7.43501533       7.42230572       4.95663967       0.01355193       0.02668926      -0.00706981       -1       -1        0       32       0.01105806       0.01857525      -0.00793919
Cl       2.47213630       9.90756436       0.00068240       0.04210059       0.00821310      -0.00625445        0       -1        0       32       0.04040534       0.00811026      -0.00811372
Cl       7.44356064       9.90144190       9.91058098      -0.04409376       0.05596804       0.01007984       -1       -1       -1       32      -0.04266602       0.06846760       0.01293601
Cl       2.48391734       4.96664139       0.00051534      -0.02324529      -0.02849284      -0.00889780        0       -1        0       32      -0.02725108      -0.03034627      -0.00163165
Cl       7.43616677       4.94938401       0.00159461       0.01269596       0.02394256       0.00014953       -1        0        0       32       0.01168945       0.02985753       0.00274637
Cl       2.47882646       0.00887536       4.96636964      -0.00923628      -0.05000812      -0.03826307        0        0       -1       32      -0.01420762      -0.04271498      -0.04475545
Cl       7.44058983       9.90685846       4.95374292      -0.02266854       0.00596819       0.04072339       -1       -1        0       32      -0.02139825       0.01722313       0.04068502
Cl       2.50943520       4.94880482       4.93730069      -0.11534773       0.03122041       0.06813994        0        0        0       33      -0.11221138       0.01983310       0.06883191
Cl       7.42444790       4.94500001       4.95983267       0.02630352       0.07278632       0.00638799       -1        0       -1       32       0.00840614       0.07671679       0.00030462
Cl       2.48049295       2.48660450       2.46717649      -0.00850675      -0.06161515       0.03546241        0        0        0       32      -0.01677518      -0.06938637       0.03064926
Cl       7.44457031       2.47694483       2.49082025      -0.04709024       0.00670862      -0.06671925       -1        0        0       32      -0.04892626       0.00008070      -0.07537218
Cl       2.47220501       7.42947810       2.47727795       0.02623690       0.00540173       0.03360556        0       -1        0       32       0.02993340       0.00500398       0.01852539
Cl       7.42032465       7.43885661       2.48463325       0.07012134      -0.04803849       0.00792868       -1       -1        0       32       0.07779903      -0.04611307      -0.00162269
Cl       2.48149221       2.48855960       7.44323238      -0.01792212      -0.00822204      -0.03282283        0        0       -1       32      -0.02537084      -0.00524058      -0.03158754
Cl       7.43935550       2.48160791       7.44205030      -0.03640643      -0.00235342      -0.01388904       -1        0       -1       32      -0.03697332      -0.01003690      -0.01795555
Cl       2.48000249       7.42555929       7.45477587       0.00472577       0.03222907      -0.07683243        0       -1       -1       32       0.00467530       0.02937747      -0.07967455
Cl       7.43583187       7.43857366       7.44609592      -0.00466713      -0.02024467      -0.03577102       -1       -1       -1       32      -0.00646991      -0.01690007      -0.03940735
Cl       0.00100075       9.90106853       2.48540091       0.01919511       0.02927259      -0.01593268        0       -1        0       32       0.01773025       0.04258537      -0.03213295
Cl       4.96093305       9.90572159       2.48464941      -0.02739141       0.03034581      -0.02222054       -1       -1        0       32      -0.02761917       0.03884491      -0.03368714
Cl       0.00206187       4.94169013       2.48078819      -0.01394215       0.07953862       0.01052792        0        0        0       32      -0.01693255       0.08333648       0.01267079
Cl       4.95260873       4.95586388       2.46591579       0.03581617       0.00473658       0.04303777        0        0        0       32       0.03811710       0.00379525       0.04452049
Cl       9.90991553       0.01231333       7.45997720       0.03606278      -0.05422860      -0.09584495       -1        0       -1       32       0.04497707      -0.04753159      -0.10798445
Cl       4.93771709       0.01900478       7.44077840       0.08235885      -0.07321631      -0.01102136        0        0       -1       32       0.08887160      -0.07029739      -0.01654496
Cl       0.01150909       4.95570129       7.42737945      -0.03577149       0.02273152       0.01940499        0        0       -1       32      -0.03912133       0.01116319       0.02013067
Cl       4.96294486       4.95520676       7.43110900      -0.00515941       0.01496222       0.02208650       -1        0       -1       32      -0.01535732       0.00397142       0.02987151
Cl       9.91325109       2.47262795       0.00454837       0.01120014       0.03993787      -0.00112024       -1        0        0       32       0.02285560       0.03150314       0.00036550
Cl       4.93839820       2.47633579       0.00963271       0.09162205       0.00456508      -0.02714976        0        0        0       32       0.10176476      -0.00321850      -0.02368540
Cl       0.00071224       7.44376924       0.01077454      -0.02654379      -0.06647156      -0.03019290        0       -1        0       32      -0.02663878      -0.06413303      -0.03336754
Cl       4.95810857       7.43640372       0.01694191      -0.01355597      -0.00108400      -0.06906418       -1       -1        0       32      -0.01055800       0.00544349      -0.07337107
Cl       9.90391065       2.47378594       4.95820553       0.04358117       0.01720900       0.02334274       -1        0       -1       32       0.04382990       0.00478441       0.01599325
Cl       4.96004037       2.46824981       4.95095314      -0.01678107       0.03094919       0.02091382       -1        0        0       32      -0.01487265       0.02287115       0.00942162
Cl       0.01347301       7.44366732       4.96766138      -0.03377607      -0.07096803      -0.01780880        0       -1       -1       32      -0.03993295      -0.06593704      -0.02754699
Cl       4.96274042       7.43927133       4.95972014      -0.03314888      -0.01333546       0.01348008       -1       -1       -1       32      -0.03938163      -0.00321108       0.00547882
64
Lattice="10.42270159 0.0 0.0 0.0 10.42270159 0.0 0.0 0.0 10.42270159" Properties=species:S:1:pos:R:3:REF_forces:R:3:map_shift:I:3:n_neighb:I:1:force:R:3 REF_virial="-18.10383404 -0.00199323 0.00069561 -0.00199323 -18.09331827 -0.00221593 0.00069561 -0.00221593 -18.11536927" REF_energy=-243.63816253 config_type=test data_type=rand_struc cutoff=5.0 nneightol=1.2 energy=-243.63812982791677 pbc="T T T"
Li      10.40733801      10.41428682       0.01060062       0.03115830       0.00453354       0.00475949       -1       -1        0       32       0.03364168       0.00837209       0.01326377
Li       5.21144439       0.01673625       0.00586454      -0.02034712      -0.03571102      -0.00507890       -1        0        0       32      -0.01698532      -0.02954564      -0.00465512
Li      10.42225466       5.21425373       0.00270042      -0.01132787      -0.00534047      -0.00120156       -1       -1        0       32      -0.01640083      -0.00390437      -0.00497944
Li       5.20148143       5.20347332      10.41257041       0.01124426       0.02276834       0.00909787        0        0       -1       32       0.01177543       0.01788532       0.01431131
Li       0.00395771      10.41840431       5.20124901      -0.00710468      -0.02269139       0.00290056        0       -1        0       32      -0.00953486      -0.00256916       0.00609276
Li       5.21863512      10.41713493       5.22301786       0.00192515      -0.00071459      -0.00676875       -1       -1       -1       32      -0.00994640       0.01828783      -0.00764431
Li      10.41670249       5.18330424       5.22056947      -0.00848403       0.04617029      -0.00999436       -1        0       -1       32      -0.00608477       0.05543589      -0.00694103
Li       5.18715616       5.18783760       5.20962563       0.02997668       0.02308231      -0.00663302        0        0        0       32       0.03152829       0.03007267      -0.00060141
Li       0.01349563       2.61170608       2.60385382       0.00248760      -0.01217402      -0.00945654        0        0        0       32       0.00048740      -0.00323944      -0.00928728
Li       5.21951604       2.60405581       2.58727328      -0.01756206       0.01260367       0.03541386       -1        0        0       32      -0.02330141       0.00940459       0.03301626
Li      10.41946107       7.80293095       2.60149308       0.00098518       0.01635418       0.02190841       -1       -1        0       32      -0.00063016       0.02335266       0.01326806
Li       5.21504356       7.82577313       2.60639936      -0.00126970      -0.02120356       0.00803603       -1       -1        0       32      -0.00018780      -0.01564758      -0.00361303
Li       0.01577955       2.60286815       7.81267597      -0.00971888       0.00367562       0.01415070        0        0       -1       32      -0.01662710      -0.00107048       0.02091429
Li       5.23182776       2.60701044       7.82535987      -0.01908898       0.00439756      -0.03052868       -1        0       -1       32      -0.02949797       0.00236667      -0.02381008
Li       0.01687613       7.83201331       7.82771394      -0.03365116      -0.01018313      -0.02894459        0       -1       -1       32      -0.03575118      -0.01456400      -0.02878665
Li       5.21299727       7.82770383       7.82640350       0.01584503      -0.01373226      -0.02469455       -1       -1       -1       32       0.00699464      -0.01541859      -0.03054946
Li       2.60474475      10.40193165       2.62838771      -0.00302267       0.00676363      -0.02239620        0       -1        0       32       0.00061283       0.01058280      -0.04377440
Li       7.81148246       0.02250147       2.59797531       0.01292782      -0.03339711       0.02798762       -1        0        0       32       0.00960293      -0.03597853       0.02867863
Li       2.59923594       5.21286240       2.61135911       0.01798880      -0.00003152      -0.00395361        0       -1        0       32       0.01775832       0.00543592      -0.01572786
Li       7.81821344       5.20891907       2.60702097      -0.01411584       0.01749932       0.00562087       -1        0        0       32      -0.01572209       0.00548078      -0.00069413
Li       2.59900987      10.41369398       7.82811376       0.00719162       0.01077502      -0.00493369        0       -1       -1       32       0.00385824       0.01270063      -0.02194278
Li       7.82157695      10.42240506       7.81773514      -0.00169071      -0.01368896      -0.01573514       -1       -1       -1       32       0.00062976      -0.00178769      -0.01077972
Li       2.59962981       5.20923634       7.81319345       0.00997156      -0.00055993      -0.00639976        0        0       -1       32       0.00739583      -0.00048506      -0.01452579
Li       7.82059993       5.20489477       7.81420008      -0.01030229       0.02576869      -0.00448375       -1        0       -1       32      -0.00523452       0.03067777      -0.00090940
Li       2.61498527       2.61122215      10.41033912      -0.02351508      -0.01685784       0.01989662        0        0       -1       32      -0.02922563      -0.01622293       0.02012735
Li       7.82930622       2.59211838      10.41716213       0.00508613       0.02394565       0.00599286       -1        0       -1       32      -0.00413175       0.02288298       0.00253795
Li       2.61587495       7.79735386      10.39177504      -0.00335767       0.02852762       0.03678682        0       -1       -1       32      -0.00170689       0.02914560       0.04696876
Li       7.81340066       7.81384873      10.41739998      -0.00238207      -0.00957380       0.00386505       -1       -1       -1       32      -0.00370497      -0.00452878       0.00510164
Li       2.60186131       2.59877348       5.21536635       0.02483795       0.00389197      -0.01599204        0        0       -1       32       0.02421492       0.00243254      -0.01047725
Li       7.83367969       2.60749624       5.21555854      -0.03098264       0.00249802      -0.00539916       -1        0       -1       32      -0.03329334      -0.00670675      -0.00957066
Li       2.60859990       7.80369337       5.21338645      -0.00089687       0.01145255      -0.02330325        0       -1       -1       32       0.00024998       0.01212061      -0.00356151
Li       7.81530645       7.81936932       5.21235533       0.00638360      -0.00329389      -0.00133761       -1       -1       -1       32       0.00783118      -0.01490939       0.00213979
Cl       2.60167318      10.39405876       0.00954813       0.00425747       0.04936127      -0.02976317        0       -1        0       32       0.00378951       0.05682180      -0.03085196
Cl       7.82119715      10.42024673       0.00012236      -0.01339646       0.02493345       0.00362378       -1       -1        0       32      -0.00236692       0.02003070       0.00645709
Cl       2.59919112       5.22309645      10.40856768      -0.00180838      -0.00971979      -0.00707996        0       -1       -1       32       0.00998268      -0.00599908       0.00046609
Cl       7.81334239       5.22315992      10.41919717      -0.01034218      -0.04126420       0.01274308       -1       -1       -1       32      -0.00430731      -0.03281345       0.01647962
Cl       2.61201907       0.00097390       5.21419254      -0.00399703       0.02597270      -0.00956041        0        0       -1       32       0.00030097       0.02113486      -0.02138889
Cl       7.83030940       0.00288886       5.23284689      -0.02705888       0.01940445      -0.03027176       -1        0       -1       32      -0.03103332       0.00433191      -0.03996376
Cl       2.62490080       5.21159344       5.21021410      -0.06940301      -0.01210988       0.00782471        0       -1        0       32      -0.06626334      -0.00687304       0.00377385
Cl       7.81831829       5.23414462       5.20758215       0.00691174      -0.06198972       0.00517818       -1       -1        0       32       0.00601512      -0.05905826       0.00817057
Cl       2.60194209       2.61993261       2.59536088       0.01598102      -0.04065550       0.01068177        0        0        0       32       0.01378674      -0.05229011       0.01986765
Cl       7.81219464       2.60488442       2.62509977       0.00508103      -0.00619374      -0.05821246       -1        0        0       32       0.00235886      -0.00777029      -0.06213872
Cl       2.62163464       7.81575963       2.60968897      -0.03259319      -0.01795145      -0.00555955        0       -1        0       32      -0.04015392      -0.01804046       0.00255709
Cl       7.81885611       7.82550204       2.61632385      -0.01310157      -0.01484830      -0.04067064       -1       -1        0       32      -0.01911749      -0.02746089      -0.03430147
Cl       2.59924730       2.61641901       7.81316813      -0.00090352      -0.02607304       0.01035072        0        0       -1       32      -0.00170333      -0.03714971       0.01011601
Cl       7.80840318       2.61114836       7.82182970       0.02438258      -0.00502336       0.00344938       -1        0       -1       32       0.02416892      -0.00670321      -0.00586063
Cl       2.60058922       7.83337451       7.78171033      -0.01069921      -0.03761351       0.06863831        0       -1       -1       32      -0.01654106      -0.04275234       0.07749592
Cl       7.82609842       7.82218230       7.81064667      -0.01517901       0.00164052       0.02995113       -1       -1       -1       32      -0.02261441      -0.00664331       0.02613482
Cl       0.00774334      10.41138994       2.61793124      -0.01625954       0.03753251      -0.01896764        0       -1        0       32      -0.01516735       0.03525496      -0.02138144
Cl       5.22108695      10.41091716       2.60648701      -0.00667969       0.03602818      -0.00788111       -1       -1        0       32      -0.01188468       0.03529721      -0.00199853
Cl       0.00284404       5.19009891       2.59507353      -0.00440358       0.04691573       0.01723681        0        0        0       32       0.00037251       0.06189116       0.02130539
Cl       5.19878070       5.20480190       2.59721842       0.03039442       0.00231343      -0.01725039        0        0        0       32       0.04013174       0.00749767      -0.00833462
Cl       0.00369568       0.00485510       7.81216828       0.00246101       0.01196963       0.02179715        0        0       -1       32       0.00752277      -0.00401333       0.02129427
Cl       5.21153194       0.00108511       7.81865026      -0.00204421       0.01031745       0.00485620       -1        0       -1       32       0.00524996       0.00069359      -0.00798091
Cl      10.40742472       5.21085040       7.82202857       0.04062081      -0.00161877      -0.01356553       -1        0       -1       32       0.04976942      -0.00174568      -0.02342899
Cl       5.19965152       5.21011570       7.80734840       0.01771098      -0.00441281       0.02946933        0        0       -1       32       0.03293462      -0.00109048       0.02605956
Cl       0.00411134       2.61035196       0.00631595      -0.01877479      -0.02553319      -0.01988609        0        0        0       32      -0.01637423      -0.03061494      -0.01694140
Cl       5.20069473       2.59087068      10.41936851       0.02229521       0.02139501       0.00049465        0        0       -1       32       0.02180907       0.03097184       0.00856862
Cl      10.40281799       7.82548911       0.01841097       0.04480831      -0.02371146      -0.04590308       -1       -1        0       32       0.05254729      -0.02829997      -0.04822032
Cl       5.19636764       7.80376330      10.39973652       0.03392715       0.02545983       0.02219216        0       -1       -1       32       0.03984481       0.02168679       0.03255626
Cl      10.41490312       2.61385878       5.19507366       0.02584271      -0.00544391       0.04546173       -1        0        0       32       0.02809820      -0.00835254       0.04930551
Cl       5.21375719       2.62000432       5.20728928      -0.00059903      -0.04547593       0.01007702       -1        0        0       32      -0.00138205      -0.04900482       0.00965806
Cl      10.42019754       7.81729895       5.20425012       0.02749224      -0.01920374       0.00752547       -1       -1        0       32       0.02147943      -0.01851538       0.00444957
Cl       5.21989022       7.81360557       5.20331104      -0.01411276       0.02004362       0.02383865       -1       -1        0       32      -0.00986767       0.01951984       0.02448643
64
Lattice="10.16848936 0.0 0.0 0.0 10.16848936 0.0 0.0 0.0 10.16848936" Properties=species:S:1:pos:R:3:REF_forces:R:3:map_shift:I:3:n_neighb:I:1:force:R:3 REF_virial="-3.07249332 -0.00103147 0.00136362 -0.00103147 -3.09640541 0.00302804 0.00136362 0.00302804 -3.0970544" REF_energy=-244.39678685 config_type=test data_type=rand_struc cutoff=5.0 nneightol=1.2 energy=-244.39253526721546 pbc="T T T"
Li      10.15884699       0.00704209       0.00725074       0.02148679      -0.01091882      -0.01891965       -1        0        0       32       0.02268495      -0.00891052      -0.02140599
Li       5.07870916      10.16652440       0.00013829      -0.01489042       0.00457430      -0.01854037        0       -1        0       32      -0.00972922       0.00085316      -0.02112992
Li      10.15269780       5.09364636       0.00274427       0.00383468      -0.00696121      -0.00536161       -1       -1        0       32       0.00559617      -0.00763361      -0.01054378
Li       5.08140198       5.10512272      10.15133532      -0.00140003      -0.01978969       0.02326251        0       -1       -1       32       0.00616754      -0.01501947       0.00781304
Li      10.16564106      10.16781539       5.08890042       0.01655723       0.00376538       0.00565490       -1       -1       -1       32       0.00220232       0.01455542      -0.00205862
Li       5.10760709      10.15851336       5.08754293      -0.04717900       0.01484785      -0.00307826       -1       -1       -1       32      -0.04581959       0.02049753      -0.00899886
Li       0.00298140       5.07597770       5.07481066      -0.01199582       0.00845832      -0.00160931        0        0        0       32      -0.01127762       0.01006655      -0.01133606
Li       5.07822412       5.08542768       5.09506050       0.02573712      -0.00359847      -0.02526098        0       -1       -1       32       0.02338221       0.00405527      -0.02715174
Li       0.01598822       2.54486824       2.53858869      -0.03507238      -0.00340883       0.00103593        0        0        0       32      -0.02839335      -0.00174647       0.00287163
Li       5.06499563       2.55896634       2.52773372       0.02624772      -0.00377968       0.02069438        0        0        0       32       0.01441131      -0.00718148       0.02579874
Li      10.14934474       7.61305006       2.54811707       0.01184241       0.01998025      -0.01359888       -1       -1        0       32       0.01232508       0.01412889      -0.00776314
Li       5.08648449       7.62053895       2.53545954      -0.00702980       0.00204903       0.00565799       -1       -1        0       32      -0.00014975      -0.00557346       0.01663600
Li       0.00449356       2.56570063       7.63000805       0.00268648      -0.04033511      -0.01095645        0        0       -1       32      -0.00634040      -0.04024101      -0.00169334
Li       5.09230575       2.55661671       7.62225254      -0.02355761      -0.02466761      -0.00157850       -1        0       -1       32      -0.02662539      -0.02803514       0.00894999
Li      10.15276237       7.62841211       7.62005595       0.01908582       0.01729419       0.01071546       -1       -1       -1       32       0.02775282       0.00276196       0.01292592
Li       5.06300372       7.62955911       7.60807920       0.02054367       0.00416543       0.02218382        0       -1       -1       32       0.02666662      -0.00316670       0.02627963