 64
 REF_virial="-3.07249332      -0.00103147       0.00136362      -0.00103147      -3.09640541       0.00302804       0.00136362       0.00302804      -3.09705440" REF_energy=-244.39678685 config_type=test data_type=rand_struc energy=-244.39253526721546 cutoff=5.00000000 nneightol=1.20000000 pbc="T T T" Lattice="10.16848936       0.00000000       0.00000000       0.00000000      10.16848936       0.00000000       0.00000000       0.00000000      10.16848936" Properties=species:S:1:pos:R:3:REF_forces:R:3:Z:I:1:map_shift:I:3:n_neighb:I:1:force:R:3
 Li             10.15884699      0.00704209      0.00725074      0.02148679     -0.01091882     -0.01891965       3      -1       0       0      32      0.02268495     -0.00891052     -0.02140599
 Li              5.07870916     10.16652440      0.00013829     -0.01489042      0.00457430     -0.01854037       3       0      -1       0      32     -0.00972922      0.00085316     -0.02112992
 Li             10.15269780      5.09364636      0.00274427      0.00383468     -0.00696121     -0.00536161       3      -1      -1       0      32      0.00559617     -0.00763361     -0.01054378
 Li              5.08140198      5.10512272     10.15133532     -0.00140003     -0.01978969      0.02326251       3       0      -1      -1      32      0.00616754     -0.01501947      0.00781304
 Li             10.16564106     10.16781539      5.08890042      0.01655723      0.00376538      0.00565490       3      -1      -1      -1      32      0.00220232      0.01455542     -0.00205862
 Li              5.10760709     10.15851336      5.08754293     -0.04717900      0.01484785     -0.00307826       3      -1      -1      -1      32     -0.04581959      0.02049753     -0.00899886
 Li              0.00298140      5.07597770      5.07481066     -0.01199582      0.00845832     -0.00160931       3       0       0       0      32     -0.01127762      0.01006655     -0.01133606
 Li              5.07822412      5.08542768      5.09506050      0.02573712     -0.00359847     -0.02526098       3       0      -1      -1      32      0.02338221      0.00405527     -0.02715174
 Li              0.01598822      2.54486824      2.53858869     -0.03507238     -0.00340883      0.00103593       3       0       0       0      32     -0.02839335     -0.00174647      0.00287163
 Li              5.06499563      2.55896634      2.52773372      0.02624772     -0.00377968      0.02069438       3       0       0       0      32      0.01441131     -0.00718148      0.02579874
 Li             10.14934474      7.61305006      2.54811707      0.01184241      0.01998025     -0.01359888       3      -1      -1       0      32      0.01232508      0.01412889     -0.00776314
 Li              5.08648449      7.62053895      2.53545954     -0.00702980      0.00204903      0.00565799       3      -1      -1       0      32     -0.00014975     -0.00557346      0.01663600
 Li              0.00449356      2.56570063      7.63000805      0.00268648     -0.04033511     -0.01095645       3       0       0      -1      32     -0.00634040     -0.04024101     -0.00169334
 Li              5.09230575      2.55661671      7.62225254     -0.02355761     -0.02466761     -0.00157850       3      -1       0      -1      32     -0.02662539     -0.02803514      0.00894999
 Li             10.15276237      7.62841211      7.62005595      0.01908582      0.01729419      0.01071546       3      -1      -1      -1      32      0.02775282      0.00276196      0.01292592
 Li              5.06300372      7.62955911      7.60807920      0.02054367      0.00416543      0.02218382       3       0      -1      -1      32      0.02666662     -0.00316670      0.02627963
 Li              2.54626925     10.16388009      2.54421105     -0.01564654     -0.00703707      0.00309867       3       0      -1       0      32     -0.02193559      0.00114466      0.00299922
 Li              7.62796022      0.00228984      2.53557495     -0.01582809     -0.00595874      0.01656193       3      -1       0       0      32     -0.01549159      0.00196390      0.01861320
 Li              2.54890706      5.07782053      2.53645666     -0.00607355      0.01968796     -0.00876102       3       0       0       0      32     -0.01479155      0.02066921      0.00495281
 Li              7.63353143      5.07318096      2.53386888     -0.02780434      0.01125574      0.00706557       3      -1       0       0      32     -0.03171648      0.01026345      0.01394664
 Li              2.54439286     10.15393368      7.63383303     -0.00656268      0.03083937     -0.00996144       3       0      -1      -1      32     -0.01049404      0.03452889     -0.00683717
 Li              7.62132731     10.16459747      7.62914739      0.00174153      0.00532560     -0.00295403       3      -1      -1      -1      32      0.00526970      0.00833310      0.00552230
 Li              2.52951728      5.08769627      7.60373715      0.01865079     -0.00565391      0.02557750       3       0      -1      -1      32      0.01365707      0.00129194      0.03012280
 Li              7.62281954      5.08713416      7.61805143     -0.00530963     -0.00548458      0.00316021       3      -1      -1      -1      32      0.00144347     -0.00354406      0.01253015
 Li              2.54700454      2.55878321      0.00319402     -0.01421405     -0.02454450     -0.02281309       3       0       0       0      32     -0.01018275     -0.02548595     -0.02622626
 Li              7.60287659      2.53244743      0.02222700      0.02009253      0.02491373     -0.02509314       3      -1       0       0      32      0.01411208      0.01127787     -0.03122326
 Li              2.55764810      7.62389953      0.00611472     -0.02750250      0.00489735     -0.00538768       3       0      -1       0      32     -0.04412501     -0.00090045     -0.00599998
 Li              7.64373144      7.64627387      0.00468696     -0.02762612     -0.03971733     -0.00351788       3      -1      -1       0      32     -0.04136142     -0.03280160     -0.01182070
 Li              2.54727563      2.54360857      5.08392702      0.00156417     -0.01707944      0.02294042       3       0       0       0      32      0.00685201     -0.02562810      0.01314103
 Li              7.60844099      2.53194317      5.09217529      0.01441615      0.02406798     -0.00966958       3      -1       0      -1      32      0.01840481      0.01335571     -0.02523373
 Li              2.53205218      7.63243080      5.07671471      0.01348365      0.00861239      0.00997954       3       0      -1       0      32      0.00696200      0.00464923      0.00047410
 Li              7.62593740      7.62975913      5.09736854     -0.00713933     -0.01670848     -0.02192216       3      -1      -1      -1      32     -0.00086246     -0.01472403     -0.02966015
 Cl              2.54095856     10.16235207     10.15655928     -0.01122030      0.02849918      0.06163891      17       0      -1      -1      32     -0.00694030      0.03083115      0.05796760
 Cl              7.61841323     10.16773496      0.00707656     -0.00915358      0.00696205     -0.01898190      17      -1      -1       0      32     -0.00716859      0.00729632     -0.01713435
 Cl              2.52432575      5.07957023      0.00069552      0.01347739      0.01886579     -0.00254321      17       0       0       0      32      0.01831988      0.01671994      0.00050383
 Cl              7.61559401      5.07713833     10.16776130      0.02959391      0.01310915     -0.02907616      17      -1       0      -1      32      0.03073145      0.01435377     -0.02109268
 Cl              2.55647415      0.00025625      5.10199673     -0.04024489     -0.01369755     -0.07150421      17       0       0      -1      32     -0.03816537     -0.01612024     -0.06468696
 Cl              7.61138558     10.16759982      5.09028263      0.03065481     -0.00252590     -0.03072718      17      -1      -1      -1      32      0.02674973     -0.00665888     -0.02414822
 Cl              2.56545333      5.08789730      5.05957226     -0.08394755      0.00569802      0.06398720      17       0      -1       0      32     -0.08061246      0.00243645      0.06468412
 Cl              7.62724354      5.09299833      5.06971981     -0.00514153     -0.03833558      0.05845603      17      -1      -1       0      32     -0.01137736     -0.03882477      0.05888787
 Cl              2.53900417      2.53888510      2.55768125     -0.02577611      0.00479647     -0.05448178      17       0       0       0      32     -0.02646226      0.00377958     -0.05486026
 Cl              7.61732774      2.54434680      2.54531718      0.01770712     -0.01782921     -0.00670384      17      -1       0       0      32      0.02009246     -0.01409201     -0.00568693
 Cl              2.52310167      7.62604814      2.53914521      0.04413447      0.01234521     -0.00099452      17       0      -1       0      32      0.04907954      0.01678190     -0.00493205
 Cl              7.62510369      7.61201440      2.54560393     -0.03786707      0.06156208     -0.00712007      17      -1      -1       0      32     -0.03393615      0.06043492     -0.00983836
 Cl              2.54654919      2.53744494      7.62420561     -0.01884351      0.04282179     -0.00346045      17       0       0      -1      32     -0.01745233      0.03969285     -0.00682171
 Cl              7.61942672      2.52872810      7.62666953      0.01463727      0.03986008     -0.00078975      17      -1       0      -1      32      0.00948434      0.03976295     -0.00617366
 Cl              2.55231778      7.64642670      7.64382835     -0.05603827     -0.09429392     -0.05289768      17       0      -1      -1      32     -0.05136770     -0.08415301     -0.05319873
 Cl              7.61889460      7.63190305      7.61611606      0.01104725     -0.01609957      0.03159015      17      -1      -1      -1      32      0.01008952     -0.00993393      0.02955804
 Cl             10.14876534     10.16366777      2.54816252      0.04419317      0.02650722     -0.00901358      17      -1      -1       0      32      0.04758658      0.02152808     -0.00704568
 Cl              5.06514470      0.01287809      2.52416458      0.04591662     -0.04933030      0.03959343      17       0       0       0      32      0.04608571     -0.05026206      0.03857245
 Cl             10.15054289      5.09798821      2.53877152      0.05362073     -0.06903929     -0.00186973      17      -1      -1       0      32      0.05279441     -0.06680135     -0.00510079
 Cl              5.07955314      5.09366243      2.53706148     -0.00346104     -0.01143040     -0.00649026      17       0      -1       0      32     -0.00150023     -0.01294104     -0.01165542
 Cl              0.00726935     10.16234993      7.62243212     -0.04767244      0.01050588      0.00243984      17       0      -1      -1      32     -0.04133150      0.00529870      0.00125745
 Cl              5.06965015     10.16657931      7.61467143      0.06149583      0.02052798      0.05083858      17       0      -1      -1      32      0.05831333      0.02270840      0.04872724
 Cl              0.00533469      5.09701356      7.61880848     -0.01722827     -0.01620742     -0.00879649      17       0      -1      -1      32     -0.01462264     -0.01291685     -0.00968239
 Cl              5.07552256      5.08014566      7.63111865      0.01211855      0.01536531     -0.02740440      17       0       0      -1      32      0.00840436      0.01089131     -0.03052467
 Cl             10.16252727      2.53757357     10.14774340      0.00362379      0.01474282      0.06802610      17      -1       0      -1      32      0.00595080      0.01668481      0.06852045
 Cl              5.07344991      2.56410997     10.16780502      0.00718643     -0.05425881     -0.00027600      17       0       0      -1      32      0.00907160     -0.04942083     -0.00042255
 Cl             10.14961298      7.62544525      0.00135922      0.02982601      0.01167804     -0.01347700      17      -1      -1       0      32      0.02762955      0.01327777     -0.01431618
 Cl              5.08736569      7.61423998     10.15451450     -0.00012323      0.04308978      0.03813041      17      -1      -1      -1      32     -0.00166434      0.04299565      0.03779918
 Cl              0.00208861      2.54408913      5.08302446     -0.01173671      0.00394221      0.00099183      17       0       0       0      32     -0.00758901      0.00536360      0.00694993
 Cl              5.08259220      2.55061903      5.08182143      0.01068934     -0.01443657     -0.00572158      17       0       0       0      32      0.01516931     -0.00994913      0.00088157
 Cl             10.16360310      7.62305962      5.07607328      0.02186871      0.00988446      0.03276421      17      -1      -1       0      32      0.02371631      0.01067977      0.03859711
 Cl              5.08245014      7.61401109      5.09889859     -0.00647573      0.03762959     -0.06473169      17       0      -1      -1      32     -0.00767259      0.03675148     -0.06007976
 64
 REF_virial="-0.01658071      -0.00000000      -0.00000000      -0.00000000      -0.01736275      -0.00000000      -0.00000000      -0.00000000      -0.01736275" REF_energy=-244.43352591 config_type=test data_type=phonon energy=-244.43350389192892 cutoff=5.00000000 nneightol=1.20000000 pbc="T T T" Lattice="10.12128792       0.00000000       0.00000000       0.00000000      10.12128792       0.00000000       0.00000000       0.00000000      10.12128792" Properties=species:S:1:pos:R:3:REF_forces:R:3:force_atom_sigma:R:1:Z:I:1:map_shift:I:3:n_neighb:I:1:force:R:3
 Li              0.01000003      0.00000000      0.00000000     -0.01620734     -0.00000000     -0.00000000      0.00162073       3       0       0       0      32     -0.01679295      0.00000000      0.00000000
 Li              5.06064396      0.00000000      0.00000000      0.00470080     -0.00000000      0.00000000      0.00100000       3      -1       0       0      32     -0.00000000      0.00000000     -0.00000000
 Li              0.00000000      5.06064396      0.00000000      0.00017782     -0.00000000      0.00000000      0.00100000       3       0      -1       0      32     -0.00000000     -0.00000000      0.00000000
 Li              5.06064396      5.06064396      0.00000000      0.00000338     -0.00000000      0.00000000      0.00100000       3      -1      -1       0      32     -0.00000000      0.00000000     -0.00000000
 Li              0.00000000      0.00000000      5.06064396      0.00017782     -0.00000000      0.00000000      0.00100000       3       0       0      -1      32     -0.00000000      0.00000000     -0.00000000
 Li              5.06064396      0.00000000      5.06064396      0.00000338     -0.00000000      0.00000000      0.00100000       3      -1       0      -1      32      0.00000000      0.00000000     -0.00000000
 Li              0.00000000      5.06064396      5.06064396     -0.00018352     -0.00000000     -0.00000000      0.00100000       3       0      -1      -1      32     -0.00000000      0.00000000     -0.00000000
 Li              5.06064396      5.06064396      5.06064396      0.00016801     -0.00000000      0.00000000      0.00100000       3      -1      -1      -1      32      0.00000000      0.00000000      0.00000000
 Li              0.00000000      2.53032198      2.53032198     -0.00053492     -0.00000327     -0.00000327      0.00100000       3       0       0       0      32     -0.00125302     -0.00000441     -0.00000441
 Li              5.06064396      2.53032198      2.53032198      0.00041823      0.00000106      0.00000106      0.00100000       3      -1       0       0      32     -0.00000000      0.00000000      0.00000000
 Li              0.00000000      7.59096594      2.53032198     -0.00053492      0.00000327     -0.00000327      0.00100000       3       0      -1       0      32     -0.00125302      0.00000441     -0.00000441
 Li              5.06064396      7.59096594      2.53032198      0.00041823     -0.00000106      0.00000106      0.00100000       3      -1      -1       0      32      0.00000000     -0.00000000      0.00000000
 Li              0.00000000      2.53032198      7.59096594     -0.00053492     -0.00000327      0.00000327      0.00100000       3       0       0      -1      32     -0.00125302     -0.00000441      0.00000441
 Li              5.06064396      2.53032198      7.59096594      0.00041823      0.00000106     -0.00000106      0.00100000       3      -1       0      -1      32      0.00000000      0.00000000     -0.00000000
 Li              0.00000000      7.59096594      7.59096594     -0.00053492      0.00000327      0.00000327      0.00100000       3       0      -1      -1      32     -0.00125302      0.00000441      0.00000441
 Li              5.06064396      7.59096594      7.59096594      0.00041823     -0.00000106     -0.00000106      0.00100000       3      -1      -1      -1      32      0.00000000      0.00000000     -0.00000000
 Li              2.53032198      0.00000000      2.53032198      0.00031953     -0.00000000      0.00241386      0.00100000       3       0       0       0      32      0.00098312     -0.00000000      0.00224503
 Li              7.59096594      0.00000000      2.53032198      0.00032463     -0.00000000     -0.00239677      0.00100000       3      -1       0       0      32      0.00097480      0.00000000     -0.00221907
 Li              2.53032198      5.06064396      2.53032198     -0.00001181     -0.00000000     -0.00008421      0.00100000       3       0      -1       0      32     -0.00000000     -0.00000000      0.00000000
 Li              7.59096594      5.06064396      2.53032198     -0.00001106     -0.00000000      0.00008041      0.00100000       3      -1      -1       0      32     -0.00000000     -0.00000000     -0.00000000
 Li              2.53032198      0.00000000      7.59096594      0.00031953     -0.00000000     -0.00241386      0.00100000       3       0       0      -1      32      0.00098312     -0.00000000     -0.00224503
 Li              7.59096594      0.00000000      7.59096594      0.00032463     -0.00000000      0.00239677      0.00100000       3      -1       0      -1      32      0.00097480      0.00000000      0.00221907
 Li              2.53032198      5.06064396      7.59096594     -0.00001181     -0.00000000      0.00008421      0.00100000       3       0      -1      -1      32     -0.00000000      0.00000000     -0.00000000
 Li              7.59096594      5.06064396      7.59096594     -0.00001106     -0.00000000     -0.00008041      0.00100000       3      -1      -1      -1      32     -0.00000000     -0.00000000      0.00000000
 Li              2.53032198      2.53032198      0.00000000      0.00031953      0.00241386      0.00000000      0.00100000       3       0       0       0      32      0.00098312      0.00224503     -0.00000000
 Li              7.59096594      2.53032198      0.00000000      0.00032463     -0.00239677     -0.00000000      0.00100000       3      -1       0       0      32      0.00097480     -0.00221907      0.00000000
 Li              2.53032198      7.59096594      0.00000000      0.00031953     -0.00241386     -0.00000000      0.00100000       3       0      -1       0      32      0.00098312     -0.00224503     -0.00000000
 Li              7.59096594      7.59096594      0.00000000      0.00032463      0.00239677      0.00000000      0.00100000       3      -1      -1       0      32      0.00097480      0.00221907      0.00000000
 Li              2.53032198      2.53032198      5.06064396     -0.00001181     -0.00008421     -0.00000000      0.00100000       3       0       0      -1      32     -0.00000000      0.00000000      0.00000000
 Li              7.59096594      2.53032198      5.06064396     -0.00001106      0.00008041      0.00000000      0.00100000       3      -1       0      -1      32     -0.00000000     -0.00000000     -0.00000000
 Li              2.53032198      7.59096594      5.06064396     -0.00001181      0.00008421      0.00000000      0.00100000       3       0      -1      -1      32     -0.00000000      0.00000000     -0.00000000
 Li              7.59096594      7.59096594      5.06064396     -0.00001106     -0.00008041     -0.00000000      0.00100000       3      -1      -1      -1      32     -0.00000000      0.00000000     -0.00000000
 Cl              2.53032198      0.00000000      0.00000000      0.00346346     -0.00000000      0.00000000      0.00100000      17       0       0       0      32      0.00335683      0.00000000     -0.00000000
 Cl              7.59096594      0.00000000      0.00000000      0.00301451     -0.00000000      0.00000000      0.00100000      17      -1       0       0      32      0.00284026     -0.00000000      0.00000000
 Cl              2.53032198      5.06064396      0.00000000      0.00012439     -0.00000000      0.00000000      0.00100000      17       0      -1       0      32     -0.00000000      0.00000000      0.00000000
 Cl              7.59096594      5.06064396      0.00000000      0.00011674     -0.00000000      0.00000000      0.00100000      17      -1      -1       0      32     -0.00000000     -0.00000000      0.00000000
 Cl              2.53032198      0.00000000      5.06064396      0.00012439     -0.00000000      0.00000000      0.00100000      17       0       0      -1      32     -0.00000000     -0.00000000     -0.00000000
 Cl              7.59096594      0.00000000      5.06064396      0.00011674     -0.00000000      0.00000000      0.00100000      17      -1       0      -1      32     -0.00000000      0.00000000      0.00000000
 Cl              2.53032198      5.06064396      5.06064396     -0.00000532     -0.00000000      0.00000000      0.00100000      17       0      -1      -1      32     -0.00000000     -0.00000000      0.00000000
 Cl              7.59096594      5.06064396      5.06064396     -0.00000490     -0.00000000      0.00000000      0.00100000      17      -1      -1      -1      32     -0.00000000      0.00000000      0.00000000
 Cl              2.53032198      2.53032198      2.53032198     -0.00002990     -0.00048259     -0.00048259      0.00100000      17       0       0       0      32      0.00008846     -0.00049966     -0.00049966
 Cl              7.59096594      2.53032198      2.53032198     -0.00003934      0.00047834      0.00047834      0.00100000      17      -1       0       0      32      0.00007492      0.00050921      0.00050921
 Cl              2.53032198      7.59096594      2.53032198     -0.00002990      0.00048259     -0.00048259      0.00100000      17       0      -1       0      32      0.00008846      0.00049966     -0.00049966
 Cl              7.59096594      7.59096594      2.53032198     -0.00003934     -0.00047834      0.00047834      0.00100000      17      -1      -1       0      32      0.00007492     -0.00050921      0.00050921
 Cl              2.53032198      2.53032198      7.59096594     -0.00002990     -0.00048259      0.00048259      0.00100000      17       0       0      -1      32      0.00008846     -0.00049966      0.00049966
 Cl              7.59096594      2.53032198      7.59096594     -0.00003934      0.00047834     -0.00047834      0.00100000      17      -1       0      -1      32      0.00007492      0.00050921     -0.00050921
 Cl              2.53032198      7.59096594      7.59096594     -0.00002990      0.00048259      0.00048259      0.00100000      17       0      -1      -1      32      0.00008846      0.00049966      0.00049966
 Cl              7.59096594      7.59096594      7.59096594     -0.00003934     -0.00047834     -0.00047834      0.00100000      17      -1      -1      -1      32      0.00007492     -0.00050921     -0.00050921
 Cl              0.00000000      0.00000000      2.53032198      0.00190697     -0.00000000     -0.00000735      0.00100000      17       0       0       0      32      0.00178068     -0.00000000     -0.00000260
 Cl              5.06064396      0.00000000      2.53032198     -0.00125373     -0.00000000     -0.00000391      0.00100000      17      -1       0       0      32     -0.00000000      0.00000000     -0.00000000
 Cl              0.00000000      5.06064396      2.53032198      0.00021210     -0.00000000     -0.00000109      0.00100000      17       0      -1       0      32      0.00000000      0.00000000     -0.00000000
 Cl              5.06064396      5.06064396      2.53032198     -0.00024829     -0.00000000     -0.00000143      0.00100000      17      -1      -1       0      32      0.00000000      0.00000000      0.00000000
 Cl              0.00000000      0.00000000      7.59096594      0.00190697     -0.00000000      0.00000735      0.00100000      17       0       0      -1      32      0.00178068      0.00000000      0.00000260
 Cl              5.06064396      0.00000000      7.59096594     -0.00125373     -0.00000000      0.00000391      0.00100000      17      -1       0      -1      32      0.00000000     -0.00000000      0.00000000
 Cl              0.00000000      5.06064396      7.59096594      0.00021210     -0.00000000      0.00000109      0.00100000      17       0      -1      -1      32      0.00000000     -0.00000000      0.00000000
 Cl              5.06064396      5.06064396      7.59096594     -0.00024829     -0.00000000      0.00000143      0.00100000      17      -1      -1      -1      32      0.00000000      0.00000000     -0.00000000
 Cl              0.00000000      2.53032198      0.00000000      0.00190697     -0.00000735      0.00000000      0.00100000      17       0       0       0      32      0.00178068     -0.00000260     -0.00000000
 Cl              5.06064396      2.53032198      0.00000000     -0.00125373     -0.00000391     -0.00000000      0.00100000      17      -1       0       0      32     -0.00000000      0.00000000      0.00000000
 Cl              0.00000000      7.59096594      0.00000000      0.00190697      0.00000735      0.00000000      0.00100000      17       0      -1       0      32      0.00178068      0.00000260     -0.00000000
 Cl              5.06064396      7.59096594      0.00000000     -0.00125373      0.00000391     -0.00000000      0.00100000      17      -1      -1       0      32     -0.00000000     -0.00000000      0.00000000
 Cl              0.00000000      2.53032198      5.06064396      0.00021210     -0.00000109      0.00000000      0.00100000      17       0       0      -1      32      0.00000000     -0.00000000     -0.00000000
 Cl              5.06064396      2.53032198      5.06064396     -0.00024829     -0.00000143     -0.00000000      0.00100000      17      -1       0      -1      32     -0.00000000      0.00000000      0.00000000
 Cl              0.00000000      7.59096594      5.06064396      0.00021210      0.00000109      0.00000000      0.00100000      17       0      -1      -1      32      0.00000000      0.00000000      0.00000000
 Cl              5.06064396      7.59096594      5.06064396     -0.00024829      0.00000143     -0.00000000      0.00100000      17      -1      -1      -1      32     -0.00000000      0.00000000      0.00000000
 64
 REF_virial="-30.33751136       0.00135713       0.00157612       0.00135713     -30.32893087      -0.00097597       0.00157612      -0.00097597     -30.32925995" REF_energy=-241.91300708 config_type=test data_type=rand_struc energy=-242.21441331056496 cutoff=5.00000000 nneightol=1.20000000 pbc="T T T" Lattice="10.67691382       0.00000000       0.00000000       0.00000000      10.67691382       0.00000000       0.00000000       0.00000000      10.67691382" Properties=species:S:1:pos:R:3:REF_forces:R:3:Z:I:1:map_shift:I:3:n_neighb:I:1:force:R:3
 Li             10.66040325      0.00298751      0.00836098      0.00955166     -0.01302145     -0.00944215       3      -1       0       0      32     -0.03446912     -0.02275656     -0.01124146
 Li              5.34360863      0.00541853      0.00446498     -0.01223143     -0.00942462      0.00725955       3      -1       0       0      32     -0.02560956     -0.00656449      0.00407005
 Li              0.00010997      5.32939947      0.01120393      0.00569214      0.02166640     -0.00952854       3       0       0       0      32     -0.01268954      0.05034758     -0.00039452
 Li              5.33875426      5.34893619      0.00253086     -0.01463424      0.00483376     -0.00701189       3      -1      -1       0      32     -0.02387520      0.03901289     -0.02134392
 Li              0.00184881     10.67473584      5.34417899     -0.00558010     -0.00303038      0.00686374       3       0      -1      -1      32     -0.01626515      0.00671230      0.01895544
 Li              5.34061247     10.66973658      5.34284299      0.00208595      0.04352573     -0.01414387       3      -1      -1      -1      32     -0.02427299      0.07255123     -0.01992557
 Li             10.65471726      5.32868188      5.34115454      0.01721041      0.01582360     -0.00530620       3      -1       0      -1      32     -0.06363026      0.01604856     -0.03172841
 Li              5.34003869      5.34971358      5.35212955     -0.01248775     -0.04117246      0.00263757       3      -1      -1      -1      32      0.00278915     -0.04857245      0.00860191
 Li              0.00360837      2.67489864      2.65912030      0.00152334     -0.00026623      0.00391272       3       0       0       0      32     -0.00490719     -0.02809570      0.02654324
 Li              5.33772223      2.68649772      2.64251855     -0.00689535     -0.02046126      0.04299956       3       0       0       0      32     -0.01078459      0.00614354      0.02805563
 Li              0.00606032      8.01768857      2.68986565      0.00356014     -0.00717291     -0.01176181       3       0      -1       0      32     -0.00296288     -0.00014072      0.02887694