phonopy:
  version: "2.23.1"
  frequency_unit_conversion_factor: 15.633302
  symmetry_tolerance: 1.00000e-04

space_group:
  type: "Fm-3m"
  number: 225
  Hall_symbol: "-F 4 2 3"

primitive_matrix:
- [ -0.000000000000000,  0.500000000000000,  0.500000000000000 ]
- [  0.500000000000000,  0.000000000000000,  0.500000000000000 ]
- [  0.500000000000000,  0.500000000000000,  0.000000000000000 ]

supercell_matrix:
- [   2,   0,   0 ]
- [   0,   2,   0 ]
- [   0,   0,   2 ]

primitive_cell:
  lattice:
  - [     0.000000000000000,     2.542122339049762,     2.542122339049762 ] # a
  - [     2.542122339049762,     0.000000000000000,     2.542122339049762 ] # b
  - [     2.542122339049762,     2.542122339049762,     0.000000000000000 ] # c
  points:
  - symbol: Li # 1
    coordinates: [  0.000000000000000,  0.000000000000000,  0.000000000000000 ]
    mass: 6.941000
  - symbol: Cl # 2
    coordinates: [  0.500000000000000,  0.500000000000000,  0.500000000000000 ]
    mass: 35.453000
  reciprocal_lattice: # without 2pi
  - [    -0.196686049416055,     0.196686049416055,     0.196686049416055 ] # a*
  - [     0.196686049416055,    -0.196686049416055,     0.196686049416055 ] # b*
  - [     0.196686049416055,     0.196686049416055,    -0.196686049416055 ] # c*

unit_cell:
  lattice:
  - [     5.084244678099525,     0.000000000000000,     0.000000000000000 ] # a
  - [     0.000000000000001,     5.084244678099525,     0.000000000000000 ] # b
  - [     0.000000000000000,     0.000000000000000,     5.084244678099525 ] # c
  points:
  - symbol: Li # 1
    coordinates: [  0.000000000000000,  0.000000000000000,  0.000000000000000 ]
    mass: 6.941000
    reduced_to: 1
  - symbol: Li # 2
    coordinates: [ -0.000000000000000,  0.500000000000000,  0.500000000000000 ]
    mass: 6.941000
    reduced_to: 1
  - symbol: Li # 3
    coordinates: [  0.500000000000000,  0.000000000000000,  0.500000000000000 ]
    mass: 6.941000
    reduced_to: 1
  - symbol: Li # 4
    coordinates: [  0.500000000000000,  0.500000000000000, -0.000000000000000 ]
    mass: 6.941000
    reduced_to: 1
  - symbol: Cl # 5
    coordinates: [  0.500000000000000,  0.000000000000000, -0.000000000000000 ]
    mass: 35.453000
    reduced_to: 5
  - symbol: Cl # 6
    coordinates: [  0.500000000000000,  0.500000000000000,  0.500000000000000 ]
    mass: 35.453000
    reduced_to: 5
  - symbol: Cl # 7
    coordinates: [  0.000000000000000,  0.000000000000000,  0.500000000000000 ]
    mass: 35.453000
    reduced_to: 5
  - symbol: Cl # 8
    coordinates: [ -0.000000000000000,  0.500000000000000, -0.000000000000000 ]
    mass: 35.453000
    reduced_to: 5

supercell:
  lattice:
  - [    10.168489356199050,     0.000000000000000,     0.000000000000001 ] # a
  - [     0.000000000000002,    10.168489356199050,     0.000000000000001 ] # b
  - [     0.000000000000000,     0.000000000000000,    10.168489356199050 ] # c
  points:
  - symbol: Li # 1
    coordinates: [  0.000000000000000,  0.000000000000000,  0.000000000000000 ]
    mass: 6.941000
    reduced_to: 1
  - symbol: Li # 2
    coordinates: [  0.500000000000000,  0.000000000000000,  0.000000000000000 ]
    mass: 6.941000
    reduced_to: 1
  - symbol: Li # 3
    coordinates: [  0.000000000000000,  0.500000000000000,  0.000000000000000 ]
    mass: 6.941000
    reduced_to: 1
  - symbol: Li # 4
    coordinates: [  0.500000000000000,  0.500000000000000,  0.000000000000000 ]
    mass: 6.941000
    reduced_to: 1
  - symbol: Li # 5
    coordinates: [  0.000000000000000,  0.000000000000000,  0.500000000000000 ]
    mass: 6.941000
    reduced_to: 1
  - symbol: Li # 6
    coordinates: [  0.500000000000000,  0.000000000000000,  0.500000000000000 ]
    mass: 6.941000
    reduced_to: 1
  - symbol: Li # 7
    coordinates: [  0.000000000000000,  0.500000000000000,  0.500000000000000 ]
    mass: 6.941000
    reduced_to: 1
  - symbol: Li # 8
    coordinates: [  0.500000000000000,  0.500000000000000,  0.500000000000000 ]
    mass: 6.941000
    reduced_to: 1
  - symbol: Li # 9
    coordinates: [  1.000000000000000,  0.250000000000000,  0.250000000000000 ]
    mass: 6.941000
    reduced_to: 1
  - symbol: Li # 10
    coordinates: [  0.500000000000000,  0.250000000000000,  0.250000000000000 ]
    mass: 6.941000
    reduced_to: 1
  - symbol: Li # 11
    coordinates: [  1.000000000000000,  0.750000000000000,  0.250000000000000 ]
    mass: 6.941000
    reduced_to: 1
  - symbol: Li # 12
    coordinates: [  0.500000000000000,  0.750000000000000,  0.250000000000000 ]
    mass: 6.941000
    reduced_to: 1
  - symbol: Li # 13
    coordinates: [  1.000000000000000,  0.250000000000000,  0.750000000000000 ]
    mass: 6.941000
    reduced_to: 1
  - symbol: Li # 14
    coordinates: [  0.500000000000000,  0.250000000000000,  0.750000000000000 ]
    mass: 6.941000
    reduced_to: 1
  - symbol: Li # 15
    coordinates: [  1.000000000000000,  0.750000000000000,  0.750000000000000 ]
    mass: 6.941000
    reduced_to: 1
  - symbol: Li # 16
    coordinates: [  0.500000000000000,  0.750000000000000,  0.750000000000000 ]
    mass: 6.941000
    reduced_to: 1
  - symbol: Li # 17
    coordinates: [  0.250000000000000,  0.000000000000000,  0.250000000000000 ]
    mass: 6.941000
    reduced_to: 1
  - symbol: Li # 18
    coordinates: [  0.750000000000000,  0.000000000000000,  0.250000000000000 ]
    mass: 6.941000
    reduced_to: 1
  - symbol: Li # 19
    coordinates: [  0.250000000000000,  0.500000000000000,  0.250000000000000 ]
    mass: 6.941000
    reduced_to: 1
  - symbol: Li # 20
    coordinates: [  0.750000000000000,  0.500000000000000,  0.250000000000000 ]
    mass: 6.941000
    reduced_to: 1
  - symbol: Li # 21
    coordinates: [  0.250000000000000,  0.000000000000000,  0.750000000000000 ]
    mass: 6.941000
    reduced_to: 1
  - symbol: Li # 22
    coordinates: [  0.750000000000000,  0.000000000000000,  0.750000000000000 ]
    mass: 6.941000
    reduced_to: 1
  - symbol: Li # 23
    coordinates: [  0.250000000000000,  0.500000000000000,  0.750000000000000 ]
    mass: 6.941000
    reduced_to: 1
  - symbol: Li # 24
    coordinates: [  0.750000000000000,  0.500000000000000,  0.750000000000000 ]
    mass: 6.941000
    reduced_to: 1
  - symbol: Li # 25
    coordinates: [  0.250000000000000,  0.250000000000000,  1.000000000000000 ]
    mass: 6.941000
    reduced_to: 1
  - symbol: Li # 26
    coordinates: [  0.750000000000000,  0.250000000000000,  1.000000000000000 ]
    mass: 6.941000
    reduced_to: 1
  - symbol: Li # 27
    coordinates: [  0.250000000000000,  0.750000000000000,  1.000000000000000 ]
    mass: 6.941000
    reduced_to: 1
  - symbol: Li # 28
    coordinates: [  0.750000000000000,  0.750000000000000,  1.000000000000000 ]
    mass: 6.941000
    reduced_to: 1
  - symbol: Li # 29
    coordinates: [  0.250000000000000,  0.250000000000000,  0.500000000000000 ]
    mass: 6.941000
    reduced_to: 1
  - symbol: Li # 30
    coordinates: [  0.750000000000000,  0.250000000000000,  0.500000000000000 ]
    mass: 6.941000
    reduced_to: 1
  - symbol: Li # 31
    coordinates: [  0.250000000000000,  0.750000000000000,  0.500000000000000 ]
    mass: 6.941000
    reduced_to: 1
  - symbol: Li # 32
    coordinates: [  0.750000000000000,  0.750000000000000,  0.500000000000000 ]
    mass: 6.941000
    reduced_to: 1
  - symbol: Cl # 33
    coordinates: [  0.250000000000000,  0.000000000000000,  1.000000000000000 ]
    mass: 35.453000
    reduced_to: 33
  - symbol: Cl # 34
    coordinates: [  0.750000000000000,  0.000000000000000,  1.000000000000000 ]
    mass: 35.453000
    reduced_to: 33
  - symbol: Cl # 35
    coordinates: [  0.250000000000000,  0.500000000000000,  1.000000000000000 ]
    mass: 35.453000
    reduced_to: 33
  - symbol: Cl # 36
    coordinates: [  0.750000000000000,  0.500000000000000,  1.000000000000000 ]
    mass: 35.453000
    reduced_to: 33
  - symbol: Cl # 37
    coordinates: [  0.250000000000000,  0.000000000000000,  0.500000000000000 ]
    mass: 35.453000
    reduced_to: 33
  - symbol: Cl # 38
    coordinates: [  0.750000000000000,  0.000000000000000,  0.500000000000000 ]
    mass: 35.453000
    reduced_to: 33
  - symbol: Cl # 39
    coordinates: [  0.250000000000000,  0.500000000000000,  0.500000000000000 ]
    mass: 35.453000
    reduced_to: 33
  - symbol: Cl # 40
    coordinates: [  0.750000000000000,  0.500000000000000,  0.500000000000000 ]
    mass: 35.453000
    reduced_to: 33
  - symbol: Cl # 41
    coordinates: [  0.250000000000000,  0.250000000000000,  0.250000000000000 ]
    mass: 35.453000
    reduced_to: 33
  - symbol: Cl # 42
    coordinates: [  0.750000000000000,  0.250000000000000,  0.250000000000000 ]
    mass: 35.453000
    reduced_to: 33
  - symbol: Cl # 43
    coordinates: [  0.250000000000000,  0.750000000000000,  0.250000000000000 ]
    mass: 35.453000
    reduced_to: 33
  - symbol: Cl # 44
    coordinates: [  0.750000000000000,  0.750000000000000,  0.250000000000000 ]
    mass: 35.453000
    reduced_to: 33
  - symbol: Cl # 45
    coordinates: [  0.250000000000000,  0.250000000000000,  0.750000000000000 ]
    mass: 35.453000
    reduced_to: 33
  - symbol: Cl # 46
    coordinates: [  0.750000000000000,  0.250000000000000,  0.750000000000000 ]
    mass: 35.453000
    reduced_to: 33
  - symbol: Cl # 47
    coordinates: [  0.250000000000000,  0.750000000000000,  0.750000000000000 ]
    mass: 35.453000
    reduced_to: 33
  - symbol: Cl # 48
    coordinates: [  0.750000000000000,  0.750000000000000,  0.750000000000000 ]
    mass: 35.453000
    reduced_to: 33
  - symbol: Cl # 49
    coordinates: [  0.000000000000000,  0.000000000000000,  0.250000000000000 ]
    mass: 35.453000
    reduced_to: 33
  - symbol: Cl # 50
    coordinates: [  0.500000000000000,  0.000000000000000,  0.250000000000000 ]
    mass: 35.453000
    reduced_to: 33
  - symbol: Cl # 51
    coordinates: [  0.000000000000000,  0.500000000000000,  0.250000000000000 ]
    mass: 35.453000
    reduced_to: 33
  - symbol: Cl # 52
    coordinates: [  0.500000000000000,  0.500000000000000,  0.250000000000000 ]
    mass: 35.453000
    reduced_to: 33
  - symbol: Cl # 53
    coordinates: [  0.000000000000000,  0.000000000000000,  0.750000000000000 ]
    mass: 35.453000
    reduced_to: 33
  - symbol: Cl # 54
    coordinates: [  0.500000000000000,  0.000000000000000,  0.750000000000000 ]
    mass: 35.453000
    reduced_to: 33
  - symbol: Cl # 55
    coordinates: [  0.000000000000000,  0.500000000000000,  0.750000000000000 ]
    mass: 35.453000
    reduced_to: 33
  - symbol: Cl # 56
    coordinates: [  0.500000000000000,  0.500000000000000,  0.750000000000000 ]
    mass: 35.453000
    reduced_to: 33
  - symbol: Cl # 57
    coordinates: [  1.000000000000000,  0.250000000000000,  1.000000000000000 ]
    mass: 35.453000
    reduced_to: 33
  - symbol: Cl # 58
    coordinates: [  0.500000000000000,  0.250000000000000,  1.000000000000000 ]
    mass: 35.453000
    reduced_to: 33
  - symbol: Cl # 59
    coordinates: [  1.000000000000000,  0.750000000000000,  1.000000000000000 ]
    mass: 35.453000
    reduced_to: 33
  - symbol: Cl # 60
    coordinates: [  0.500000000000000,  0.750000000000000,  1.000000000000000 ]
    mass: 35.453000
    reduced_to: 33
  - symbol: Cl # 61
    coordinates: [  1.000000000000000,  0.250000000000000,  0.500000000000000 ]
    mass: 35.453000
    reduced_to: 33
  - symbol: Cl # 62
    coordinates: [  0.500000000000000,  0.250000000000000,  0.500000000000000 ]
    mass: 35.453000
    reduced_to: 33
  - symbol: Cl # 63
    coordinates: [  1.000000000000000,  0.750000000000000,  0.500000000000000 ]
    mass: 35.453000
    reduced_to: 33
  - symbol: Cl # 64
    coordinates: [  0.500000000000000,  0.750000000000000,  0.500000000000000 ]
    mass: 35.453000
    reduced_to: 33

displacements:
- atom:    1
  displacement:
    [   0.0100000000000000,  0.0000000000000000,  0.0000000000000000 ]
  forces:
  - [  -0.0151250390697674, -0.0000000000000075,  0.0000000000000058 ]
  - [  -0.0000000000000121,  0.0000000000000077,  0.0000000000000141 ]
  - [  -0.0000000000000359,  0.0000000000000167,  0.0000000000000117 ]
  - [   0.0000000000000215, -0.0000000000000129, -0.0000000000000009 ]
  - [  -0.0000000000000166,  0.0000000000000177,  0.0000000000000464 ]
  - [   0.0000000000000196,  0.0000000000000003,  0.0000000000000452 ]
  - [  -0.0000000000000546, -0.0000000000000245,  0.0000000000000280 ]
  - [   0.0000000000000106, -0.0000000000000228,  0.0000000000000300 ]
  - [  -0.0012325111009711, -0.0000042841497965, -0.0000042841498164 ]
  - [   0.0000000000001146,  0.0000000000000313, -0.0000000000000101 ]
  - [  -0.0012325111009342,  0.0000042841498074, -0.0000042841497547 ]
  - [   0.0000000000000105,  0.0000000000000163,  0.0000000000000012 ]
  - [  -0.0012325111009799, -0.0000042841498209,  0.0000042841497757 ]
  - [   0.0000000000000717,  0.0000000000000191, -0.0000000000000093 ]
  - [  -0.0012325111009645,  0.0000042841498098,  0.0000042841499421 ]
  - [  -0.0000000000000170, -0.0000000000000103,  0.0000000000000322 ]
  - [   0.0009470895952929, -0.0000000000000106,  0.0021882254171742 ]
  - [   0.0009452461600601,  0.0000000000000066, -0.0021692409251714 ]
  - [   0.0000000000000189,  0.0000000000000139, -0.0000000000000185 ]
  - [  -0.0000000000000188, -0.0000000000000163,  0.0000000000000042 ]
  - [   0.0009470895952835,  0.0000000000000125, -0.0021882254171361 ]
  - [   0.0009452461601116, -0.0000000000000673,  0.0021692409251019 ]
  - [   0.0000000000000330, -0.0000000000000210, -0.0000000000000686 ]
  - [  -0.0000000000000069,  0.0000000000000064,  0.0000000000000024 ]
  - [   0.0009470895951778,  0.0021882254171352,  0.0000000000000161 ]
  - [   0.0009452461600530, -0.0021692409251312, -0.0000000000000396 ]
  - [   0.0009470895952931, -0.0021882254171494, -0.0000000000000965 ]
  - [   0.0009452461600087,  0.0021692409251476, -0.0000000000001718 ]
  - [  -0.0000000000000734,  0.0000000000000230,  0.0000000000000062 ]
  - [   0.0000000000000242, -0.0000000000000156, -0.0000000000000308 ]
  - [   0.0000000000000002, -0.0000000000000176, -0.0000000000000883 ]
  - [  -0.0000000000000228,  0.0000000000000228,  0.0000000000000326 ]
  - [   0.0027487778145964,  0.0000000000000917, -0.0000000000000686 ]
  - [   0.0022495474417168, -0.0000000000000224,  0.0000000000000454 ]
  - [   0.0000000000000154, -0.0000000000001287, -0.0000000000000650 ]
  - [  -0.0000000000000312,  0.0000000000000996,  0.0000000000000670 ]
  - [  -0.0000000000001891,  0.0000000000000727,  0.0000000000001521 ]
  - [   0.0000000000000516,  0.0000000000000990, -0.0000000000000498 ]
  - [   0.0000000000000231,  0.0000000000000615, -0.0000000000000312 ]
  - [  -0.0000000000001068,  0.0000000000001081,  0.0000000000000841 ]
  - [   0.0000500692632673, -0.0005309024259877, -0.0005309024260086 ]
  - [   0.0000364062984724,  0.0005403513771987,  0.0005403513774803 ]
  - [   0.0000500692633710,  0.0005309024260521, -0.0005309024259390 ]
  - [   0.0000364062984606, -0.0005403513774373,  0.0005403513773488 ]
  - [   0.0000500692633259, -0.0005309024260876,  0.0005309024260089 ]
  - [   0.0000364062984990,  0.0005403513772259, -0.0005403513775322 ]
  - [   0.0000500692634063,  0.0005309024260775,  0.0005309024258854 ]
  - [   0.0000364062984251, -0.0005403513775333, -0.0005403513774002 ]
  - [   0.0017853782371872,  0.0000000000000934, -0.0000013979774719 ]
  - [   0.0000000000000321,  0.0000000000000189, -0.0000000000000126 ]
  - [  -0.0000000000001176,  0.0000000000000562, -0.0000000000000246 ]
  - [   0.0000000000000567,  0.0000000000000549, -0.0000000000000748 ]
  - [   0.0017853782372544, -0.0000000000000487,  0.0000013979773876 ]
  - [  -0.0000000000000656,  0.0000000000000546,  0.0000000000001398 ]
  - [  -0.0000000000000847,  0.0000000000000821,  0.0000000000000498 ]
  - [   0.0000000000000675,  0.0000000000000029, -0.0000000000000952 ]
  - [   0.0017853782371691, -0.0000013979775228,  0.0000000000000525 ]
  - [   0.0000000000001257, -0.0000000000000719, -0.0000000000000123 ]
  - [   0.0017853782371333,  0.0000013979774878, -0.0000000000001792 ]
  - [   0.0000000000000707, -0.0000000000000317,  0.0000000000000635 ]
  - [   0.0000000000000376, -0.0000000000001196,  0.0000000000000056 ]
  - [   0.0000000000000700,  0.0000000000000401,  0.0000000000001492 ]
  - [  -0.0000000000000658,  0.0000000000001260,  0.0000000000000515 ]
  - [   0.0000000000000945, -0.0000000000000821,  0.0000000000001370 ]
- atom:   33
  displacement:
    [   0.0100000000000000,  0.0000000000000000,  0.0000000000000000 ]
  forces:
  - [   0.0022495474416959, -0.0000000000000188,  0.0000000000000468 ]
  - [   0.0027487778147416,  0.0000000000000078,  0.0000000000000142 ]
  - [  -0.0000000000000360,  0.0000000000000167,  0.0000000000000116 ]
  - [   0.0000000000000214, -0.0000000000000129, -0.0000000000000010 ]
  - [  -0.0000000000000164,  0.0000000000000176,  0.0000000000000463 ]
  - [   0.0000000000000195,  0.0000000000000004,  0.0000000000000452 ]
  - [  -0.0000000000000544, -0.0000000000000245,  0.0000000000000279 ]
  - [   0.0000000000000105, -0.0000000000000228,  0.0000000000000297 ]
  - [   0.0000364062984673,  0.0005403513773774,  0.0005403513773574 ]
  - [   0.0000500692634814, -0.0005309024259948, -0.0005309024260363 ]
  - [   0.0000364062984962, -0.0005403513773734,  0.0005403513774260 ]
  - [   0.0000500692633772,  0.0005309024260425, -0.0005309024260250 ]
  - [   0.0000364062984507,  0.0005403513773722, -0.0005403513774173 ]
  - [   0.0000500692634459, -0.0005309024259997,  0.0005309024260095 ]
  - [   0.0000364062984741, -0.0005403513773641, -0.0005403513772316 ]
  - [   0.0000500692633506,  0.0005309024260146,  0.0005309024260573 ]
  - [   0.0017853782371495, -0.0000000000000105, -0.0000013979773782 ]
  - [  -0.0000000000000138,  0.0000000000000068, -0.0000000000000253 ]
  - [   0.0000000000000190,  0.0000000000000139, -0.0000000000000186 ]
  - [  -0.0000000000000190, -0.0000000000000163,  0.0000000000000039 ]
  - [   0.0017853782371400,  0.0000000000000126,  0.0000013979774163 ]
  - [   0.0000000000000085, -0.0000000000000673, -0.0000000000000733 ]
  - [   0.0000000000000331, -0.0000000000000210, -0.0000000000000686 ]
  - [  -0.0000000000000071,  0.0000000000000065,  0.0000000000000022 ]
  - [   0.0017853782370443, -0.0000013979774073,  0.0000000000000161 ]
  - [  -0.0000000000000209,  0.0000000000000148, -0.0000000000000396 ]
  - [   0.0017853782371497,  0.0000013979774030, -0.0000000000000965 ]
  - [  -0.0000000000000737, -0.0000000000000074, -0.0000000000001718 ]
  - [  -0.0000000000000736,  0.0000000000000229,  0.0000000000000062 ]
  - [   0.0000000000000244, -0.0000000000000156, -0.0000000000000307 ]
  - [   0.0000000000000001, -0.0000000000000176, -0.0000000000000882 ]
  - [  -0.0000000000000228,  0.0000000000000229,  0.0000000000000325 ]
  - [  -0.0289309362868045,  0.0000000000000580,  0.0000000000000603 ]
  - [   0.0000000000000363, -0.0000000000000224,  0.0000000000000455 ]
  - [   0.0000000000000155, -0.0000000000001286, -0.0000000000000651 ]
  - [  -0.0000000000000311,  0.0000000000000996,  0.0000000000000671 ]
  - [  -0.0000000000001893,  0.0000000000000728,  0.0000000000001518 ]
  - [   0.0000000000000515,  0.0000000000000989, -0.0000000000000498 ]
  - [   0.0000000000000231,  0.0000000000000615, -0.0000000000000310 ]
  - [  -0.0000000000001067,  0.0000000000001080,  0.0000000000000840 ]
  - [  -0.0007824813315548, -0.0000063504577160, -0.0000063504577370 ]
  - [   0.0000000000000185, -0.0000000000001701,  0.0000000000001114 ]
  - [  -0.0007824813314511,  0.0000063504577854, -0.0000063504576724 ]
  - [   0.0000000000000004, -0.0000000000000750, -0.0000000000000134 ]
  - [  -0.0007824813314899, -0.0000063504577491,  0.0000063504576704 ]
  - [   0.0000000000000466, -0.0000000000001442, -0.0000000000001620 ]
  - [  -0.0007824813314138,  0.0000063504577655,  0.0000063504575733 ]
  - [  -0.0000000000000270, -0.0000000000001626, -0.0000000000000295 ]
  - [   0.0024286439511738,  0.0000000000000935, -0.0031985679895393 ]
  - [   0.0024651363389829,  0.0000000000000189,  0.0032604684243892 ]
  - [  -0.0000000000001176,  0.0000000000000562, -0.0000000000000246 ]
  - [   0.0000000000000566,  0.0000000000000550, -0.0000000000000748 ]
  - [   0.0024286439512410, -0.0000000000000487,  0.0031985679894548 ]
  - [   0.0024651363389029,  0.0000000000000546, -0.0032604684242794 ]
  - [  -0.0000000000000847,  0.0000000000000822,  0.0000000000000498 ]
  - [   0.0000000000000675,  0.0000000000000029, -0.0000000000000950 ]
  - [   0.0024286439511559, -0.0031985679895898,  0.0000000000000526 ]
  - [   0.0024651363390164,  0.0032604684242693, -0.0000000000000123 ]
  - [   0.0024286439511200,  0.0031985679895548, -0.0000000000001793 ]
  - [   0.0024651363389613, -0.0032604684243731,  0.0000000000000636 ]
  - [   0.0000000000000377, -0.0000000000001196,  0.0000000000000055 ]
  - [   0.0000000000000700,  0.0000000000000401,  0.0000000000001491 ]
  - [  -0.0000000000000658,  0.0000000000001261,  0.0000000000000515 ]
  - [   0.0000000000000946, -0.0000000000000821,  0.0000000000001369 ]
