<?xml version="1.0" encoding="ISO-8859-1"?>
<modeling>
 <generator>
  <i name="program" type="string">vasp </i>
  <i name="version" type="string">5.4.4.18Apr17-6-g9f103f2a35  </i>
  <i name="subversion" type="string">(build Oct 28 2022 12:13:54) complex            parallel </i>
  <i name="platform" type="string">LinuxGNU </i>
  <i name="date" type="string">2024 01 08 </i>
  <i name="time" type="string">12:49:23 </i>
 </generator>
 <incar>
  <i type="string" name="PREC">accurate</i>
  <i type="string" name="ALGO"> Normal</i>
  <i type="int" name="ISPIN">     1</i>
  <i type="int" name="NELM">   200</i>
  <i name="EDIFF">      0.00000010</i>
  <i type="int" name="NSW">     0</i>
  <i name="ENCUT">    700.00000000</i>
  <i name="ENAUG">   1360.00000000</i>
  <i type="logical" name="LREAL"> F  </i>
  <i type="int" name="ISMEAR">     0</i>
  <i name="SIGMA">      0.05000000</i>
  <i type="logical" name="LWAVE"> F  </i>
  <i type="logical" name="LCHARG"> T  </i>
  <i type="logical" name="LVTOT"> T  </i>
  <i type="int" name="LORBIT">    11</i>
  <i type="logical" name="LELF"> F  </i>
  <i type="logical" name="LASPH"> T  </i>
  <i type="logical" name="LAECHG"> F  </i>
  <v type="int" name="KPOINT_BSE">    -1     0     0     0</v>
  <i type="int" name="NELM">   200</i>
  <i type="string" name="GGA"> Ps</i>
  <i type="logical" name="LASPH"> T  </i>
  <i type="int" name="LMIXTAU">     1</i>
 </incar>
 <structure name="primitive_cell" >
  <crystal>
   <varray name="basis" >
    <v>       2.53050957       2.53050957       0.00000000 </v>
    <v>       2.53050957      -0.00000000      -2.53050957 </v>
    <v>       0.00000000       2.53050957      -2.53050957 </v>
   </varray>
   <i name="volume">     32.40812827 </i>
   <varray name="rec_basis" >
    <v>       0.19758866       0.19758866       0.19758866 </v>
    <v>       0.19758866      -0.19758866      -0.19758866 </v>
    <v>      -0.19758866       0.19758866      -0.19758866 </v>
   </varray>
  </crystal>
  <varray name="positions" >
   <v>       0.00000000       0.00000000       0.00000000 </v>
   <v>      -0.50000000      -0.50000000      -0.50000000 </v>
  </varray>
 </structure>
 <varray name="primitive_index" >
  <v type="int" >        1 </v>
  <v type="int" >        5 </v>
 </varray>
 <kpoints>
  <generation param="Gamma">
   <v type="int" name="divisions">       4        4        4 </v>
   <v name="usershift">      0.00000000       0.00000000       0.00000000 </v>
   <v name="genvec1">      0.25000000       0.00000000       0.00000000 </v>
   <v name="genvec2">      0.00000000       0.25000000       0.00000000 </v>
   <v name="genvec3">     -0.00000000      -0.00000000       0.25000000 </v>
   <v name="shift">      0.00000000       0.00000000       0.00000000 </v>
  </generation>
  <varray name="kpointlist" >
   <v>       0.00000000       0.00000000       0.00000000 </v>
   <v>       0.25000000       0.00000000       0.00000000 </v>
   <v>       0.50000000       0.00000000       0.00000000 </v>
   <v>       0.25000000       0.25000000       0.00000000 </v>
   <v>       0.50000000       0.25000000       0.00000000 </v>
   <v>       0.50000000       0.50000000       0.00000000 </v>
   <v>       0.25000000       0.25000000       0.25000000 </v>
   <v>       0.50000000       0.25000000       0.25000000 </v>
   <v>       0.50000000       0.50000000       0.25000000 </v>
   <v>       0.50000000       0.50000000       0.50000000 </v>
  </varray>
  <varray name="weights" >
   <v>       0.01562500 </v>
   <v>       0.09375000 </v>
   <v>       0.04687500 </v>
   <v>       0.18750000 </v>
   <v>       0.18750000 </v>
   <v>       0.04687500 </v>
   <v>       0.12500000 </v>
   <v>       0.18750000 </v>
   <v>       0.09375000 </v>
   <v>       0.01562500 </v>
  </varray>
 </kpoints>
 <parameters>
  <separator name="general" >
   <i type="string" name="SYSTEM">unknown system</i>
   <i type="logical" name="LCOMPAT"> F  </i>
  </separator>
  <separator name="electronic" >
   <i type="string" name="PREC">accura</i>
   <i name="ENMAX">    700.00000000</i>
   <i name="ENAUG">   1360.00000000</i>
   <i name="EDIFF">      0.00000010</i>
   <i type="int" name="IALGO">    38</i>
   <i type="int" name="IWAVPR">    10</i>
   <i type="int" name="NBANDS">    28</i>
   <i name="NELECT">     40.00000000</i>
   <i type="int" name="TURBO">     0</i>
   <i type="int" name="IRESTART">     0</i>
   <i type="int" name="NREBOOT">     0</i>
   <i type="int" name="NMIN">     0</i>
   <i name="EREF">      0.00000000</i>
   <separator name="electronic smearing" >
    <i type="int" name="ISMEAR">     0</i>
    <i name="SIGMA">      0.05000000</i>
    <i name="KSPACING">      0.50000000</i>
    <i type="logical" name="KGAMMA"> T  </i>
   </separator>
   <separator name="electronic projectors" >
    <i type="logical" name="LREAL"> F  </i>
    <v name="ROPT">      0.00000000      0.00000000</v>
    <i type="int" name="LMAXPAW">  -100</i>
    <i type="int" name="LMAXMIX">     2</i>
    <i type="logical" name="NLSPLINE"> F  </i>
   </separator>
   <separator name="electronic startup" >
    <i type="int" name="ISTART">     0</i>
    <i type="int" name="ICHARG">     2</i>
    <i type="int" name="INIWAV">     1</i>
   </separator>
   <separator name="electronic spin" >
    <i type="int" name="ISPIN">     1</i>
    <i type="logical" name="LNONCOLLINEAR"> F  </i>
    <v name="MAGMOM">      1.00000000      1.00000000      1.00000000      1.00000000      1.00000000      1.00000000      1.00000000      1.00000000</v>
    <i name="NUPDOWN">     -1.00000000</i>
    <i type="logical" name="LSORBIT"> F  </i>
    <v name="SAXIS">      0.00000000      0.00000000      1.00000000</v>
    <i type="logical" name="LSPIRAL"> F  </i>
    <v name="QSPIRAL">      0.00000000      0.00000000      0.00000000</v>
    <i type="logical" name="LZEROZ"> F  </i>
   </separator>
   <separator name="electronic exchange-correlation" >
    <i type="logical" name="LASPH"> T  </i>
    <i type="logical" name="LMETAGGA"> F  </i>
   </separator>
   <separator name="electronic convergence" >
    <i type="int" name="NELM">   200</i>
    <i type="int" name="NELMDL">    -5</i>
    <i type="int" name="NELMIN">     2</i>
    <i name="ENINI">    700.00000000</i>
    <separator name="electronic convergence detail" >
     <i type="logical" name="LDIAG"> T  </i>
     <i type="logical" name="LSUBROT"> F  </i>
     <i name="WEIMIN">      0.00000000</i>
     <i name="EBREAK">      0.00000000</i>
     <i name="DEPER">      0.30000000</i>
     <i type="int" name="NRMM">     4</i>
     <i name="TIME">      0.40000000</i>
    </separator>
   </separator>
   <separator name="electronic mixer" >
    <i name="AMIX">      0.40000000</i>
    <i name="BMIX">      1.00000000</i>
    <i name="AMIN">      0.10000000</i>
    <i name="AMIX_MAG">      1.60000000</i>
    <i name="BMIX_MAG">      1.00000000</i>
    <separator name="electronic mixer details" >
     <i type="int" name="IMIX">     4</i>
     <i type="logical" name="MIXFIRST"> F  </i>
     <i type="int" name="MAXMIX">   -45</i>
     <i name="WC">    100.00000000</i>
     <i type="int" name="INIMIX">     1</i>
     <i type="int" name="MIXPRE">     1</i>
     <i type="int" name="MREMOVE">     5</i>
    </separator>
   </separator>
   <separator name="electronic dipolcorrection" >
    <i type="logical" name="LDIPOL"> F  </i>
    <i type="logical" name="LMONO"> F  </i>
    <i type="int" name="IDIPOL">     0</i>
    <i name="EPSILON">      1.00000000</i>
    <v name="DIPOL">   -100.00000000   -100.00000000   -100.00000000</v>
    <i name="EFIELD">      0.00000000</i>
   </separator>
  </separator>
  <separator name="grids" >
   <i type="int" name="NGX">    48</i>
   <i type="int" name="NGY">    48</i>
   <i type="int" name="NGZ">    48</i>
   <i type="int" name="NGXF">    96</i>
   <i type="int" name="NGYF">    96</i>
   <i type="int" name="NGZF">    96</i>
   <i type="logical" name="ADDGRID"> F  </i>
  </separator>
  <separator name="ionic" >
   <i type="int" name="NSW">     0</i>
   <i type="int" name="IBRION">    -1</i>
   <i type="int" name="MDALGO">     0</i>
   <i type="int" name="ISIF">     2</i>
   <i name="PSTRESS">      0.00000000</i>
   <i name="EDIFFG">      0.00000100</i>
   <i type="int" name="NFREE">     0</i>
   <i name="POTIM">      0.50000000</i>
   <i name="SMASS">     -3.00000000</i>
   <i name="SCALEE">      1.00000000</i>
  </separator>
  <separator name="ionic md" >
   <i name="TEBEG">      0.00010000</i>
   <i name="TEEND">      0.00010000</i>
   <i type="int" name="NBLOCK">     1</i>
   <i type="int" name="KBLOCK">     1</i>
   <i type="int" name="NPACO">   256</i>
   <i name="APACO">     16.00000000</i>
  </separator>
  <separator name="symmetry" >
   <i type="int" name="ISYM">     2</i>
   <i name="SYMPREC">      0.00001000</i>
  </separator>
  <separator name="dos" >
   <i type="int" name="LORBIT">    11</i>
   <v name="RWIGS">     -1.00000000     -1.00000000</v>
   <i type="int" name="NEDOS">   301</i>
   <i name="EMIN">     10.00000000</i>
   <i name="EMAX">    -10.00000000</i>
   <i name="EFERMI">      0.00000000</i>
  </separator>
  <separator name="writing" >
   <i type="int" name="NWRITE">     2</i>
   <i type="logical" name="LWAVE"> F  </i>
   <i type="logical" name="LDOWNSAMPLE"> F  </i>
   <i type="logical" name="LCHARG"> T  </i>
   <i type="logical" name="LPARD"> F  </i>
   <i type="logical" name="LVTOT"> T  </i>
   <i type="logical" name="LVHAR"> F  </i>
   <i type="logical" name="LELF"> F  </i>
   <i type="logical" name="LOPTICS"> F  </i>
   <v name="STM">      0.00000000      0.00000000      0.00000000      0.00000000      0.00000000      0.00000000      0.00000000</v>
  </separator>
  <separator name="performance" >
   <i type="int" name="NPAR">     4</i>
   <i type="int" name="NSIM">     4</i>
   <i type="int" name="NBLK">    -1</i>
   <i type="logical" name="LPLANE"> T  </i>
   <i type="logical" name="LSCALAPACK"> T  </i>
   <i type="logical" name="LSCAAWARE"> F  </i>
   <i type="logical" name="LSCALU"> F  </i>
   <i type="logical" name="LASYNC"> F  </i>
   <i type="logical" name="LORBITALREAL"> F  </i>
  </separator>
  <separator name="miscellaneous" >
   <i type="int" name="IDIOT">     3</i>
   <i type="int" name="ISPECIAL">     0</i>
   <i type="logical" name="LMUSIC"> F  </i>
   <v name="POMASS">      7.01000000     35.45300000</v>
   <v name="DARWINR">      0.00000000      0.00000000</v>
   <v name="DARWINV">      1.00000000      1.00000000</v>
   <i type="logical" name="LCORR"> T  </i>
  </separator>
  <i type="logical" name="GGA_COMPAT"> T  </i>
  <i type="logical" name="LBERRY"> F  </i>
  <i type="int" name="ICORELEVEL">     0</i>
  <i type="logical" name="LDAU"> F  </i>
  <i type="int" name="I_CONSTRAINED_M">     0</i>
  <separator name="electronic exchange-correlation" >
   <i type="string" name="GGA">PS</i>
   <i type="int" name="VOSKOWN">     0</i>
   <i type="logical" name="LHFCALC"> F  </i>
   <i type="string" name="PRECFOCK"></i>
   <i type="logical" name="LSYMGRAD"> F  </i>
   <i type="logical" name="LHFONE"> F  </i>
   <i type="logical" name="LRHFCALC"> F  </i>
   <i type="logical" name="LTHOMAS"> F  </i>
   <i type="logical" name="LMODELHF"> F  </i>
   <i name="ENCUT4O">     -1.00000000</i>
   <i type="int" name="EXXOEP">     0</i>
   <i type="int" name="FOURORBIT">     0</i>
   <i name="AEXX">      0.00000000</i>
   <i name="HFALPHA">      0.00000000</i>
   <i name="MCALPHA">      0.00000000</i>
   <i name="ALDAX">      1.00000000</i>
   <i name="AGGAX">      1.00000000</i>
   <i name="ALDAC">      1.00000000</i>
   <i name="AGGAC">      1.00000000</i>
   <i type="int" name="NKREDX">     1</i>
   <i type="int" name="NKREDY">     1</i>
   <i type="int" name="NKREDZ">     1</i>
   <i type="logical" name="SHIFTRED"> F  </i>
   <i type="logical" name="ODDONLY"> F  </i>
   <i type="logical" name="EVENONLY"> F  </i>
   <i type="int" name="LMAXFOCK">     0</i>
   <i type="int" name="NMAXFOCKAE">     0</i>
   <i type="logical" name="LFOCKAEDFT"> F  </i>
   <i name="HFSCREEN">      0.00000000</i>
   <i name="HFSCREENC">      0.00000000</i>
   <i type="int" name="NBANDSGWLOW">     0</i>
  </separator>
  <separator name="vdW DFT" >
   <i type="logical" name="LUSE_VDW"> F  </i>
   <i name="Zab_VDW">     -0.84910000</i>
   <i name="PARAM1">      0.12340000</i>
   <i name="PARAM2">      1.00000000</i>
   <i name="PARAM3">      0.00000000</i>
  </separator>
  <separator name="model GW" >
   <i type="int" name="MODEL_GW">     0</i>
   <i name="MODEL_EPS0">      9.72243848</i>
   <i name="MODEL_ALPHA">      1.00000000</i>
  </separator>
  <separator name="linear response parameters" >
   <i type="logical" name="LEPSILON"> F  </i>
   <i type="logical" name="LRPA"> F  </i>
   <i type="logical" name="LNABLA"> F  </i>
   <i type="logical" name="LVEL"> F  </i>
   <i type="int" name="KINTER">     0</i>
   <i name="CSHIFT">      0.10000000</i>
   <i name="OMEGAMAX">     -1.00000000</i>
   <i name="DEG_THRESHOLD">      0.00200000</i>
   <i name="RTIME">     -0.10000000</i>
   <i name="WPLASMAI">      0.00000000</i>
   <v name="DFIELD">      0.00000000      0.00000000      0.00000000</v>
   <v name="WPLASMA">      0.00000000      0.00000000      0.00000000      0.00000000      0.00000000      0.00000000      0.00000000      0.00000000      0.00000000</v>
  </separator>
  <separator name="orbital magnetization" >
   <i type="logical" name="NUCIND"> F  </i>
   <v name="MAGPOS">      0.00000000      0.00000000      0.00000000</v>
   <i type="logical" name="LNICSALL"> T  </i>
   <i type="logical" name="ORBITALMAG"> F  </i>
   <i type="logical" name="LMAGBLOCH"> F  </i>
   <i type="logical" name="LCHIMAG"> F  </i>
   <i type="logical" name="LGAUGE"> T  </i>
   <i type="int" name="MAGATOM">     0</i>
   <v name="MAGDIPOL">      0.00000000      0.00000000      0.00000000</v>
   <v name="AVECCONST">      0.00000000      0.00000000      0.00000000</v>
  </separator>
  <separator name="response functions" >
   <i type="logical" name="LADDER"> F  </i>
   <i type="logical" name="LRPAFORCE"> F  </i>
   <i type="logical" name="LFXC"> F  </i>
   <i type="logical" name="LHARTREE"> T  </i>
   <i type="int" name="IBSE">     0</i>
   <v type="int" name="KPOINT">    -1     0     0     0</v>
   <i type="logical" name="LTCTE"> F  </i>
   <i type="logical" name="LTETE"> F  </i>
   <i type="logical" name="LTRIPLET"> F  </i>
   <i type="logical" name="LFXCEPS"> F  </i>
   <i type="logical" name="LFXHEG"> F  </i>
   <i type="int" name="NATURALO">     2</i>
   <i type="logical" name="L2ORDER"> F  </i>
   <i type="logical" name="LMP2LT"> F  </i>
   <i type="logical" name="LUSEW"> F  </i>
   <i name="ENCUTGW">     -2.00000000</i>
   <i name="ENCUTGWSOFT">     -2.00000000</i>
   <i name="ENCUTLF">     -1.00000000</i>
   <i type="int" name="LMAXMP2">    -1</i>
   <i name="SCISSOR">      0.00000000</i>
   <i type="int" name="NOMEGA">     0</i>
   <i type="int" name="NOMEGAR">     0</i>
   <i type="int" name="NBANDSGW">    -1</i>
   <i type="int" name="NBANDSO">    -1</i>
   <i type="int" name="NBANDSV">    -1</i>
   <i type="int" name="NELM">   200</i>
   <i type="int" name="NELMHF">     1</i>
   <i type="int" name="DIM">     3</i>
   <i type="int" name="ANTIRES">     0</i>
   <i name="OMEGAMAX">    -30.00000000</i>
   <i name="OMEGAMIN">    -30.00000000</i>
   <i name="OMEGATL">   -200.00000000</i>
   <i type="int" name="OMEGAGRID">   140</i>
   <i name="CSHIFT">     -0.10000000</i>
   <i type="logical" name="SELFENERGY"> F  </i>
   <i type="logical" name="LSPECTRAL"> F  </i>
   <i type="logical" name="LSPECTRALGW"> F  </i>
   <i type="logical" name="LSINGLES"> F  </i>
   <i type="logical" name="LFERMIGW"> F  </i>
   <i type="logical" name="ODDONLYGW"> F  </i>
   <i type="logical" name="EVENONLYGW"> F  </i>
   <i type="int" name="NKREDLFX">     1</i>
   <i type="int" name="NKREDLFY">     1</i>
   <i type="int" name="NKREDLFZ">     1</i>
   <i type="int" name="MAXMEM">  2800</i>
   <i type="int" name="TELESCOPE">     0</i>
   <i type="int" name="TAUPAR">     1</i>
   <i type="int" name="OMEGAPAR">    -1</i>
   <i name="LAMBDA">      1.00000000</i>
  </separator>
  <separator name="External order field" >
   <i name="OFIELD_KAPPA">      0.00000000</i>
   <v name="OFIELD_K">      0.00000000      0.00000000      0.00000000</v>
   <i name="OFIELD_Q6_NEAR">      0.00000000</i>
   <i name="OFIELD_Q6_FAR">      0.00000000</i>
   <i name="OFIELD_A">      0.00000000</i>
  </separator>
 </parameters>
 <atominfo>
  <atoms>       8 </atoms>
  <types>       2 </types>
  <array name="atoms" >
   <dimension dim="1">ion</dimension>
   <field type="string">element</field>
   <field type="int">atomtype</field>
   <set>
    <rc><c>Li</c><c>   1</c></rc>
    <rc><c>Li</c><c>   1</c></rc>
    <rc><c>Li</c><c>   1</c></rc>
    <rc><c>Li</c><c>   1</c></rc>
    <rc><c>Cl</c><c>   2</c></rc>
    <rc><c>Cl</c><c>   2</c></rc>
    <rc><c>Cl</c><c>   2</c></rc>
    <rc><c>Cl</c><c>   2</c></rc>
   </set>
  </array>
  <array name="atomtypes" >
   <dimension dim="1">type</dimension>
   <field type="int">atomspertype</field>
   <field type="string">element</field>
   <field>mass</field>
   <field>valence</field>
   <field type="string">pseudopotential</field>
   <set>
    <rc><c>   4</c><c>Li</c><c>      7.01000000</c><c>      3.00000000</c><c>  PAW_PBE Li_sv 10Sep2004               </c></rc>
    <rc><c>   4</c><c>Cl</c><c>     35.45300000</c><c>      7.00000000</c><c>  PAW_PBE Cl 06Sep2000                  </c></rc>
   </set>
  </array>
 </atominfo>
 <structure name="initialpos" >
  <crystal>
   <varray name="basis" >
    <v>       5.06101914      -0.00000000       0.00000000 </v>
    <v>       0.00000000       5.06101914       0.00000000 </v>
    <v>       0.00000000      -0.00000000       5.06101914 </v>
   </varray>
   <i name="volume">    129.63251308 </i>
   <varray name="rec_basis" >
    <v>       0.19758866      -0.00000000      -0.00000000 </v>
    <v>       0.00000000       0.19758866       0.00000000 </v>
    <v>      -0.00000000      -0.00000000       0.19758866 </v>
   </varray>
  </crystal>
  <varray name="positions" >
   <v>       0.00000000       0.00000000       0.00000000 </v>
   <v>       0.00000000       0.50000000       0.50000000 </v>
   <v>       0.50000000       0.00000000       0.50000000 </v>
   <v>       0.50000000       0.50000000       0.00000000 </v>
   <v>       0.50000000       0.00000000       0.00000000 </v>
   <v>       0.50000000       0.50000000       0.50000000 </v>
   <v>       0.00000000       0.00000000       0.50000000 </v>
   <v>       0.00000000       0.50000000       0.00000000 </v>
  </varray>
 </structure>
 <calculation>
  <scstep>
   <time name="dav">    0.23    0.24</time>
   <time name="total">    0.36    0.37</time>
   <energy>
    <i name="alphaZ">     46.71013134 </i>
    <i name="ewald">  -1773.66690281 </i>
    <i name="hartreedc">   -360.20951552 </i>
    <i name="XCdc">    131.94120578 </i>
    <i name="pawpsdc">   1619.33940462 </i>
    <i name="pawaedc">  -1679.48808132 </i>
    <i name="eentropy">     -0.00460926 </i>
    <i name="bandstr">    -92.54110828 </i>
    <i name="atom">   2439.05974756 </i>
    <i name="e_fr_energy">    331.14027212 </i>
    <i name="e_wo_entrp">    331.14488138 </i>
    <i name="e_0_energy">    331.14257675 </i>
   </energy>
  </scstep>
  <scstep>
   <time name="dav">    0.24    0.25</time>
   <time name="total">    0.24    0.25</time>
   <energy>
    <i name="e_fr_energy">      3.77500226 </i>
    <i name="e_wo_entrp">      3.77500226 </i>
    <i name="e_0_energy">      3.77500226 </i>
   </energy>
  </scstep>
  <scstep>
   <time name="dav">    0.30    0.30</time>
   <time name="total">    0.30    0.30</time>
   <energy>
    <i name="e_fr_energy">    -27.07559650 </i>
    <i name="e_wo_entrp">    -27.07559650 </i>
    <i name="e_0_energy">    -27.07559650 </i>
   </energy>
  </scstep>
  <scstep>
   <time name="dav">    0.31    0.31</time>
   <time name="total">    0.31    0.31</time>
   <energy>
    <i name="e_fr_energy">    -30.57738587 </i>
    <i name="e_wo_entrp">    -30.57738587 </i>
    <i name="e_0_energy">    -30.57738587 </i>
   </energy>
  </scstep>
  <scstep>
   <time name="dav">    0.26    0.26</time>
   <time name="total">    0.47    0.47</time>
   <energy>
    <i name="e_fr_energy">    -30.75947367 </i>
    <i name="e_wo_entrp">    -30.75947367 </i>
    <i name="e_0_energy">    -30.75947367 </i>
   </energy>
  </scstep>
  <scstep>
   <time name="dav">    0.25    0.25</time>
   <time name="total">    0.55    0.55</time>
   <energy>
    <i name="e_fr_energy">    -30.55162904 </i>
    <i name="e_wo_entrp">    -30.55162904 </i>
    <i name="e_0_energy">    -30.55162904 </i>
   </energy>
  </scstep>
  <scstep>
   <time name="dav">    0.28    0.28</time>
   <time name="total">    0.58    0.58</time>
   <energy>
    <i name="e_fr_energy">    -30.54770660 </i>
    <i name="e_wo_entrp">    -30.54770660 </i>
    <i name="e_0_energy">    -30.54770660 </i>
   </energy>
  </scstep>
  <scstep>
   <time name="dav">    0.26    0.26</time>
   <time name="total">    0.56    0.56</time>
   <energy>
    <i name="e_fr_energy">    -30.55371729 </i>
    <i name="e_wo_entrp">    -30.55371729 </i>
    <i name="e_0_energy">    -30.55371729 </i>
   </energy>
  </scstep>
  <scstep>
   <time name="dav">    0.26    0.26</time>
   <time name="total">    0.56    0.56</time>
   <energy>
    <i name="e_fr_energy">    -30.55386329 </i>
    <i name="e_wo_entrp">    -30.55386329 </i>
    <i name="e_0_energy">    -30.55386329 </i>
   </energy>
  </scstep>
  <scstep>
   <time name="dav">    0.27    0.27</time>
   <time name="total">    0.58    0.58</time>
   <energy>
    <i name="e_fr_energy">    -30.55406710 </i>
    <i name="e_wo_entrp">    -30.55406710 </i>
    <i name="e_0_energy">    -30.55406710 </i>
   </energy>
  </scstep>
  <scstep>
   <time name="dav">    0.26    0.26</time>
   <time name="total">    0.56    0.56</time>
   <energy>
    <i name="e_fr_energy">    -30.55406872 </i>
    <i name="e_wo_entrp">    -30.55406872 </i>
    <i name="e_0_energy">    -30.55406872 </i>
   </energy>
  </scstep>
  <scstep>
   <time name="dav">    0.25    0.25</time>
   <time name="total">    0.56    0.56</time>
   <energy>
    <i name="e_fr_energy">    -30.55406868 </i>
    <i name="e_wo_entrp">    -30.55406868 </i>
    <i name="e_0_energy">    -30.55406868 </i>
   </energy>
  </scstep>
  <scstep>
   <time name="dav">    0.21    0.21</time>
   <time name="total">    0.32    0.32</time>
   <energy>
    <i name="alphaZ">     46.71013134 </i>
    <i name="ewald">  -1773.66690281 </i>
    <i name="hartreedc">   -368.34804207 </i>
    <i name="XCdc">    132.78198421 </i>
    <i name="pawpsdc">   2169.36981383 </i>
    <i name="pawaedc">  -2231.81535526 </i>
    <i name="eentropy">     -0.00000000 </i>
    <i name="bandstr">   -444.64544547 </i>
    <i name="atom">   2439.05974756 </i>
    <i name="e_fr_energy">    -30.55406867 </i>
    <i name="e_wo_entrp">    -30.55406867 </i>
    <i name="e_0_energy">    -30.55406867 </i>
   </energy>
  </scstep>
  <structure>
   <crystal>
    <varray name="basis" >
     <v>       5.06101914      -0.00000000       0.00000000 </v>
     <v>       0.00000000       5.06101914       0.00000000 </v>
     <v>       0.00000000      -0.00000000       5.06101914 </v>
    </varray>
    <i name="volume">    129.63251308 </i>
    <varray name="rec_basis" >
     <v>       0.19758866      -0.00000000      -0.00000000 </v>
     <v>       0.00000000       0.19758866       0.00000000 </v>
     <v>      -0.00000000      -0.00000000       0.19758866 </v>
    </varray>
   </crystal>
   <varray name="positions" >
    <v>       0.00000000       0.00000000       0.00000000 </v>
    <v>       0.00000000       0.50000000       0.50000000 </v>
    <v>       0.50000000       0.00000000       0.50000000 </v>
    <v>       0.50000000       0.50000000       0.00000000 </v>
    <v>       0.50000000       0.00000000       0.00000000 </v>
    <v>       0.50000000       0.50000000       0.50000000 </v>
    <v>       0.00000000       0.00000000       0.50000000 </v>
    <v>       0.00000000       0.50000000       0.00000000 </v>
   </varray>
  </structure>
  <varray name="forces" >
   <v>       0.00000000      -0.00000000       0.00000000 </v>
   <v>       0.00000000       0.00000000       0.00000000 </v>
   <v>       0.00000000       0.00000000       0.00000000 </v>
   <v>       0.00000000       0.00000000       0.00000000 </v>
   <v>      -0.00000000      -0.00000000      -0.00000000 </v>
   <v>       0.00000000       0.00000000       0.00000000 </v>
   <v>       0.00000000       0.00000000      -0.00000000 </v>
   <v>      -0.00000000       0.00000000      -0.00000000 </v>
  </varray>
  <varray name="stress" >
   <v>      -0.06411858      -0.00000000      -0.00000000 </v>
   <v>       0.00000000      -0.06411858       0.00000000 </v>
   <v>       0.00000000       0.00000000      -0.06411858 </v>
  </varray>
  <energy>
   <i name="e_fr_energy">    -30.55406867 </i>
   <i name="e_wo_entrp">    -30.55406867 </i>
   <i name="e_0_energy">     -0.00000000 </i>
  </energy>
  <time name="totalsc">    7.40    7.45</time>
  <eigenvalues>
   <array>
    <dimension dim="1">band</dimension>
    <dimension dim="2">kpoint</dimension>
    <dimension dim="3">spin</dimension>
    <field>eigene</field>
    <field>occ</field>
    <set>
     <set comment="spin 1">
      <set comment="kpoint 1">
       <r>  -41.8977    1.0000 </r>
       <r>  -41.8928    1.0000 </r>
       <r>  -41.8928    1.0000 </r>
       <r>  -41.8928    1.0000 </r>
       <r>  -12.6970    1.0000 </r>
       <r>  -11.7788    1.0000 </r>
       <r>  -11.7788    1.0000 </r>
       <r>  -11.7788    1.0000 </r>
       <r>   -2.3066    1.0000 </r>
       <r>   -2.3066    1.0000 </r>
       <r>   -2.3066    1.0000 </r>
       <r>   -0.3577    1.0000 </r>
       <r>   -0.3577    1.0000 </r>
       <r>   -0.3577    1.0000 </r>
       <r>   -0.3577    1.0000 </r>
       <r>   -0.3577    1.0000 </r>
       <r>   -0.3577    1.0000 </r>
       <r>    0.8444    1.0000 </r>
       <r>    0.8444    1.0000 </r>
       <r>    0.8444    1.0000 </r>
       <r>    7.2099    0.0000 </r>
       <r>    8.6918    0.0000 </r>
       <r>    8.6918    0.0000 </r>
       <r>    8.6918    0.0000 </r>
       <r>    8.8713    0.0000 </r>
       <r>    8.8713    0.0000 </r>
       <r>    8.8713    0.0000 </r>
       <r>   12.6879    0.0000 </r>
      </set>
      <set comment="kpoint 2">
       <r>  -41.8970    1.0000 </r>
       <r>  -41.8935    1.0000 </r>
       <r>  -41.8928    1.0000 </r>
       <r>  -41.8928    1.0000 </r>
       <r>  -12.5845    1.0000 </r>
       <r>  -11.9402    1.0000 </r>
       <r>  -11.7840    1.0000 </r>
       <r>  -11.7840    1.0000 </r>
       <r>   -2.0828    1.0000 </r>
       <r>   -2.0828    1.0000 </r>
       <r>   -1.8618    1.0000 </r>
       <r>   -0.7300    1.0000 </r>
       <r>   -0.7300    1.0000 </r>
       <r>   -0.3334    1.0000 </r>
       <r>   -0.3334    1.0000 </r>
       <r>   -0.2027    1.0000 </r>
       <r>   -0.2027    1.0000 </r>
       <r>    0.3332    1.0000 </r>
       <r>    0.6433    1.0000 </r>
       <r>    0.6433    1.0000 </r>
       <r>    7.9474    0.0000 </r>
       <r>    8.9870    0.0000 </r>
       <r>    9.1913    0.0000 </r>
       <r>    9.1913    0.0000 </r>
       <r>    9.2040    0.0000 </r>
       <r>    9.6067    0.0000 </r>
       <r>    9.6067    0.0000 </r>
       <r>   11.6417    0.0000 </r>
      </set>
      <set comment="kpoint 3">
       <r>  -41.8952    1.0000 </r>
       <r>  -41.8952    1.0000 </r>
       <r>  -41.8928    1.0000 </r>
       <r>  -41.8928    1.0000 </r>
       <r>  -12.2860    1.0000 </r>
       <r>  -12.2860    1.0000 </r>
       <r>  -11.7891    1.0000 </r>
       <r>  -11.7891    1.0000 </r>
       <r>   -1.4754    1.0000 </r>
       <r>   -1.4754    1.0000 </r>
       <r>   -1.4754    1.0000 </r>
       <r>   -1.4754    1.0000 </r>
       <r>   -0.7900    1.0000 </r>
       <r>   -0.7900    1.0000 </r>
       <r>   -0.3092    1.0000 </r>
       <r>   -0.3092    1.0000 </r>
       <r>    0.1976    1.0000 </r>
       <r>    0.1976    1.0000 </r>
       <r>    0.1976    1.0000 </r>
       <r>    0.1976    1.0000 </r>
       <r>    9.4905    0.0000 </r>
       <r>    9.4905    0.0000 </r>
       <r>   10.1769    0.0000 </r>
       <r>   10.1769    0.0000 </r>
       <r>   10.4587    0.0000 </r>
       <r>   10.5013    0.0000 </r>
       <r>   10.5499    0.0000 </r>
       <r>   10.5538    0.0000 </r>
      </set>
      <set comment="kpoint 4">
       <r>  -41.8964    1.0000 </r>
       <r>  -41.8934    1.0000 </r>
       <r>  -41.8934    1.0000 </r>
       <r>  -41.8929    1.0000 </r>
       <r>  -12.4845    1.0000 </r>
       <r>  -11.9219    1.0000 </r>
       <r>  -11.9219    1.0000 </r>
       <r>  -11.8117    1.0000 </r>
       <r>   -1.8644    1.0000 </r>
       <r>   -1.7839    1.0000 </r>
       <r>   -1.7839    1.0000 </r>
       <r>   -1.0972    1.0000 </r>
       <r>   -0.5571    1.0000 </r>
       <r>   -0.5571    1.0000 </r>
       <r>   -0.2805    1.0000 </r>
       <r>   -0.0952    1.0000 </r>
       <r>   -0.0952    1.0000 </r>
       <r>   -0.0614    1.0000 </r>
       <r>    0.4075    1.0000 </r>
       <r>    0.8337    1.0000 </r>
       <r>    8.2583    0.0000 </r>
       <r>    8.8134    0.0000 </r>
       <r>    9.4412    0.0000 </r>
       <r>    9.4412    0.0000 </r>
       <r>    9.8528    0.0000 </r>
       <r>    9.8528    0.0000 </r>
       <r>   10.7730    0.0000 </r>
       <r>   11.2096    0.0000 </r>
      </set>
      <set comment="kpoint 5">
       <r>  -41.8949    1.0000 </r>
       <r>  -41.8949    1.0000 </r>
       <r>  -41.8931    1.0000 </r>
       <r>  -41.8931    1.0000 </r>
       <r>  -12.2218    1.0000 </r>
       <r>  -12.2218    1.0000 </r>
       <r>  -11.8715    1.0000 </r>
       <r>  -11.8715    1.0000 </r>
       <r>   -1.5239    1.0000 </r>
       <r>   -1.5239    1.0000 </r>
       <r>   -1.2745    1.0000 </r>
       <r>   -1.2745    1.0000 </r>
       <r>   -1.0896    1.0000 </r>
       <r>   -1.0896    1.0000 </r>
       <r>   -0.1055    1.0000 </r>
       <r>   -0.1055    1.0000 </r>
       <r>    0.0489    1.0000 </r>
       <r>    0.0489    1.0000 </r>
       <r>    0.4756    1.0000 </r>
       <r>    0.4756    1.0000 </r>
       <r>    9.3264    0.0000 </r>
       <r>    9.3264    0.0000 </r>
       <r>    9.5307    0.0000 </r>
       <r>    9.5307    0.0000 </r>
       <r>   10.4690    0.0000 </r>
       <r>   10.4718    0.0000 </r>
       <r>   10.4951    0.0000 </r>
       <r>   10.4956    0.0000 </r>
      </set>
      <set comment="kpoint 6">
       <r>  -41.8940    1.0000 </r>
       <r>  -41.8940    1.0000 </r>
       <r>  -41.8940    1.0000 </r>
       <r>  -41.8940    1.0000 </r>
       <r>  -12.0558    1.0000 </r>
       <r>  -12.0558    1.0000 </r>
       <r>  -12.0558    1.0000 </r>
       <r>  -12.0558    1.0000 </r>
       <r>   -1.4279    1.0000 </r>
       <r>   -1.4279    1.0000 </r>
       <r>   -1.4279    1.0000 </r>
       <r>   -1.4279    1.0000 </r>
       <r>   -0.7387    1.0000 </r>
       <r>   -0.7387    1.0000 </r>
       <r>   -0.7387    1.0000 </r>
       <r>   -0.7387    1.0000 </r>
       <r>    0.5356    1.0000 </r>
       <r>    0.5356    1.0000 </r>
       <r>    0.5356    1.0000 </r>
       <r>    0.5356    1.0000 </r>
       <r>    8.9436    0.0000 </r>
       <r>    8.9436    0.0000 </r>
       <r>    8.9436    0.0000 </r>
       <r>    8.9436    0.0000 </r>
       <r>   11.0018    0.0000 </r>
       <r>   11.0020    0.0000 </r>
       <r>   11.0032    0.0000 </r>
       <r>   11.0226    0.0000 </r>
      </set>
      <set comment="kpoint 7">
       <r>  -41.8959    1.0000 </r>
       <r>  -41.8934    1.0000 </r>
       <r>  -41.8934    1.0000 </r>
       <r>  -41.8934    1.0000 </r>
       <r>  -12.3989    1.0000 </r>
       <r>  -11.9252    1.0000 </r>
       <r>  -11.9252    1.0000 </r>
       <r>  -11.9252    1.0000 </r>
       <r>   -1.8556    1.0000 </r>
       <r>   -1.8556    1.0000 </r>
       <r>   -1.8556    1.0000 </r>
       <r>   -0.8662    1.0000 </r>
       <r>   -0.5731    1.0000 </r>
       <r>   -0.5731    1.0000 </r>
       <r>   -0.5731    1.0000 </r>
       <r>    0.0627    1.0000 </r>
       <r>    0.0627    1.0000 </r>
       <r>    0.0627    1.0000 </r>
       <r>    0.6961    1.0000 </r>
       <r>    0.6961    1.0000 </r>
       <r>    8.0243    0.0000 </r>
       <r>    8.9093    0.0000 </r>
       <r>    8.9093    0.0000 </r>
       <r>    8.9093    0.0000 </r>
       <r>   10.4420    0.0000 </r>
       <r>   10.4420    0.0000 </r>
       <r>   10.4420    0.0000 </r>
       <r>   11.4831    0.0000 </r>
      </set>
      <set comment="kpoint 8">
       <r>  -41.8946    1.0000 </r>
       <r>  -41.8946    1.0000 </r>
       <r>  -41.8934    1.0000 </r>
       <r>  -41.8934    1.0000 </r>
       <r>  -12.1757    1.0000 </r>
       <r>  -12.1757    1.0000 </r>
       <r>  -11.9284    1.0000 </r>
       <r>  -11.9284    1.0000 </r>
       <r>   -1.9163    1.0000 </r>
       <r>   -1.9163    1.0000 </r>
       <r>   -1.5288    1.0000 </r>
       <r>   -1.5288    1.0000 </r>
       <r>   -0.5892    1.0000 </r>
       <r>   -0.5892    1.0000 </r>
       <r>    0.2098    1.0000 </r>
       <r>    0.2098    1.0000 </r>
       <r>    0.3359    1.0000 </r>
       <r>    0.3359    1.0000 </r>
       <r>    0.3725    1.0000 </r>
       <r>    0.3725    1.0000 </r>
       <r>    8.4416    0.0000 </r>
       <r>    8.4416    0.0000 </r>
       <r>    8.9704    0.0000 </r>
       <r>    8.9704    0.0000 </r>
       <r>   10.1170    0.0000 </r>
       <r>   10.1170    0.0000 </r>
       <r>   10.3394    0.0000 </r>
       <r>   10.3394    0.0000 </r>
      </set>
      <set comment="kpoint 9">
       <r>  -41.8940    1.0000 </r>
       <r>  -41.8940    1.0000 </r>
       <r>  -41.8940    1.0000 </r>
       <r>  -41.8940    1.0000 </r>
       <r>  -12.0574    1.0000 </r>
       <r>  -12.0574    1.0000 </r>
       <r>  -12.0574    1.0000 </r>
       <r>  -12.0574    1.0000 </r>
       <r>   -1.9361    1.0000 </r>
       <r>   -1.9361    1.0000 </r>
       <r>   -1.9361    1.0000 </r>
       <r>   -1.9361    1.0000 </r>
       <r>    0.0171    1.0000 </r>
       <r>    0.0171    1.0000 </r>
       <r>    0.0171    1.0000 </r>
       <r>    0.0171    1.0000 </r>
       <r>    0.5498    1.0000 </r>
       <r>    0.5498    1.0000 </r>
       <r>    0.5498    1.0000 </r>
       <r>    0.5498    1.0000 </r>
       <r>    8.1483    0.0000 </r>
       <r>    8.1483    0.0000 </r>
       <r>    8.1483    0.0000 </r>
       <r>    8.1483    0.0000 </r>
       <r>   10.4555    0.0000 </r>
       <r>   10.4617    0.0000 </r>
       <r>   10.4693    0.0000 </r>
       <r>   10.4878    0.0000 </r>
      </set>
      <set comment="kpoint 10">
       <r>  -41.8940    1.0000 </r>
       <r>  -41.8940    1.0000 </r>
       <r>  -41.8940    1.0000 </r>
       <r>  -41.8940    1.0000 </r>
       <r>  -12.0590    1.0000 </r>
       <r>  -12.0590    1.0000 </r>
       <r>  -12.0590    1.0000 </r>
       <r>  -12.0590    1.0000 </r>
       <r>   -2.1996    1.0000 </r>
       <r>   -2.1996    1.0000 </r>
       <r>   -2.1996    1.0000 </r>
       <r>   -2.1996    1.0000 </r>
       <r>    0.5640    1.0000 </r>
       <r>    0.5640    1.0000 </r>
       <r>    0.5640    1.0000 </r>
       <r>    0.5640    1.0000 </r>
       <r>    0.5640    1.0000 </r>
       <r>    0.5640    1.0000 </r>
       <r>    0.5640    1.0000 </r>
       <r>    0.5640    1.0000 </r>
       <r>    7.4450    0.0000 </r>
       <r>    7.4450    0.0000 </r>
       <r>    7.4450    0.0000 </r>
       <r>    7.4450    0.0000 </r>
       <r>   10.2530    0.0000 </r>
       <r>   10.2530    0.0000 </r>
       <r>   10.2530    0.0000 </r>
       <r>   10.2530    0.0000 </r>
      </set>
     </set>
    </set>
   </array>
  </eigenvalues>
  <separator name="orbital magnetization" >
   <v name="MAGDIPOLOUT">      0.00000000      0.00000000      0.00000000</v>
  </separator>
  <dos>
   <i name="efermi">      1.23177407 </i>
   <total>
    <array>
     <dimension dim="1">gridpoints</dimension>
     <dimension dim="2">spin</dimension>
     <field>energy</field>
     <field>total</field>
     <field>integrated</field>
     <set>
      <set comment="spin 1">
       <r>   -44.6270     0.0000     0.0000 </r>
       <r>   -44.4269     0.0000     0.0000 </r>
       <r>   -44.2267     0.0000     0.0000 </r>
       <r>   -44.0266     0.0000     0.0000 </r>
       <r>   -43.8264     0.0000     0.0000 </r>
       <r>   -43.6263     0.0000     0.0000 </r>
       <r>   -43.4261     0.0000     0.0000 </r>
       <r>   -43.2260     0.0000     0.0000 </r>
       <r>   -43.0258     0.0000     0.0000 </r>
       <r>   -42.8257     0.0000     0.0000 </r>
       <r>   -42.6255     0.0000     0.0000 </r>
       <r>   -42.4254     0.0000     0.0000 </r>
       <r>   -42.2252     0.0000     0.0000 </r>
       <r>   -42.0251     0.0042     0.0008 </r>
       <r>   -41.8249    38.9505     7.7967 </r>
       <r>   -41.6248     1.0158     8.0000 </r>
       <r>   -41.4246     0.0000     8.0000 </r>
       <r>   -41.2245     0.0000     8.0000 </r>
       <r>   -41.0243     0.0000     8.0000 </r>
       <r>   -40.8242     0.0000     8.0000 </r>
       <r>   -40.6240     0.0000     8.0000 </r>
       <r>   -40.4239     0.0000     8.0000 </r>
       <r>   -40.2238     0.0000     8.0000 </r>
       <r>   -40.0236     0.0000     8.0000 </r>
       <r>   -39.8235     0.0000     8.0000 </r>
       <r>   -39.6233     0.0000     8.0000 </r>
       <r>   -39.4232     0.0000     8.0000 </r>
       <r>   -39.2230     0.0000     8.0000 </r>
       <r>   -39.0229     0.0000     8.0000 </r>
       <r>   -38.8227     0.0000     8.0000 </r>
       <r>   -38.6226     0.0000     8.0000 </r>
       <r>   -38.4224     0.0000     8.0000 </r>
       <r>   -38.2223     0.0000     8.0000 </r>
       <r>   -38.0221     0.0000     8.0000 </r>
       <r>   -37.8220     0.0000     8.0000 </r>
       <r>   -37.6218     0.0000     8.0000 </r>
       <r>   -37.4217     0.0000     8.0000 </r>
       <r>   -37.2215     0.0000     8.0000 </r>
       <r>   -37.0214     0.0000     8.0000 </r>
       <r>   -36.8212     0.0000     8.0000 </r>
       <r>   -36.6211     0.0000     8.0000 </r>
       <r>   -36.4210     0.0000     8.0000 </r>
       <r>   -36.2208     0.0000     8.0000 </r>
       <r>   -36.0207     0.0000     8.0000 </r>
       <r>   -35.8205     0.0000     8.0000 </r>
       <r>   -35.6204     0.0000     8.0000 </r>
       <r>   -35.4202     0.0000     8.0000 </r>
       <r>   -35.2201     0.0000     8.0000 </r>
       <r>   -35.0199     0.0000     8.0000 </r>
       <r>   -34.8198     0.0000     8.0000 </r>
       <r>   -34.6196     0.0000     8.0000 </r>
       <r>   -34.4195     0.0000     8.0000 </r>
       <r>   -34.2193     0.0000     8.0000 </r>
       <r>   -34.0192     0.0000     8.0000 </r>
       <r>   -33.8190     0.0000     8.0000 </r>
       <r>   -33.6189     0.0000     8.0000 </r>
       <r>   -33.4187     0.0000     8.0000 </r>
       <r>   -33.2186     0.0000     8.0000 </r>
       <r>   -33.0184     0.0000     8.0000 </r>
       <r>   -32.8183     0.0000     8.0000 </r>
       <r>   -32.6182     0.0000     8.0000 </r>
       <r>   -32.4180     0.0000     8.0000 </r>
       <r>   -32.2179     0.0000     8.0000 </r>
       <r>   -32.0177     0.0000     8.0000 </r>
       <r>   -31.8176     0.0000     8.0000 </r>
       <r>   -31.6174     0.0000     8.0000 </r>
       <r>   -31.4173     0.0000     8.0000 </r>
       <r>   -31.2171     0.0000     8.0000 </r>
       <r>   -31.0170     0.0000     8.0000 </r>
       <r>   -30.8168     0.0000     8.0000 </r>
       <r>   -30.6167     0.0000     8.0000 </r>
       <r>   -30.4165     0.0000     8.0000 </r>
       <r>   -30.2164     0.0000     8.0000 </r>
       <r>   -30.0162     0.0000     8.0000 </r>
       <r>   -29.8161     0.0000     8.0000 </r>
       <r>   -29.6159     0.0000     8.0000 </r>
       <r>   -29.4158     0.0000     8.0000 </r>
       <r>   -29.2156     0.0000     8.0000 </r>
       <r>   -29.0155     0.0000     8.0000 </r>
       <r>   -28.8154     0.0000     8.0000 </r>
       <r>   -28.6152     0.0000     8.0000 </r>
       <r>   -28.4151     0.0000     8.0000 </r>
       <r>   -28.2149     0.0000     8.0000 </r>
       <r>   -28.0148     0.0000     8.0000 </r>
       <r>   -27.8146     0.0000     8.0000 </r>
       <r>   -27.6145     0.0000     8.0000 </r>
       <r>   -27.4143     0.0000     8.0000 </r>
       <r>   -27.2142     0.0000     8.0000 </r>
       <r>   -27.0140     0.0000     8.0000 </r>
       <r>   -26.8139     0.0000     8.0000 </r>
       <r>   -26.6137     0.0000     8.0000 </r>
       <r>   -26.4136     0.0000     8.0000 </r>
       <r>   -26.2134     0.0000     8.0000 </r>
       <r>   -26.0133     0.0000     8.0000 </r>
       <r>   -25.8131     0.0000     8.0000 </r>
       <r>   -25.6130     0.0000     8.0000 </r>
       <r>   -25.4128     0.0000     8.0000 </r>
       <r>   -25.2127     0.0000     8.0000 </r>
       <r>   -25.0126     0.0000     8.0000 </r>
       <r>   -24.8124     0.0000     8.0000 </r>
       <r>   -24.6123     0.0000     8.0000 </r>
       <r>   -24.4121     0.0000     8.0000 </r>
       <r>   -24.2120     0.0000     8.0000 </r>
       <r>   -24.0118     0.0000     8.0000 </r>
       <r>   -23.8117     0.0000     8.0000 </r>
       <r>   -23.6115     0.0000     8.0000 </r>
       <r>   -23.4114     0.0000     8.0000 </r>
       <r>   -23.2112     0.0000     8.0000 </r>
       <r>   -23.0111     0.0000     8.0000 </r>
       <r>   -22.8109     0.0000     8.0000 </r>
       <r>   -22.6108     0.0000     8.0000 </r>
       <r>   -22.4106     0.0000     8.0000 </r>
       <r>   -22.2105     0.0000     8.0000 </r>
       <r>   -22.0103     0.0000     8.0000 </r>
       <r>   -21.8102     0.0000     8.0000 </r>
       <r>   -21.6100     0.0000     8.0000 </r>
       <r>   -21.4099     0.0000     8.0000 </r>
       <r>   -21.2098     0.0000     8.0000 </r>
       <r>   -21.0096     0.0000     8.0000 </r>
       <r>   -20.8095     0.0000     8.0000 </r>
       <r>   -20.6093     0.0000     8.0000 </r>
       <r>   -20.4092     0.0000     8.0000 </r>
       <r>   -20.2090     0.0000     8.0000 </r>
       <r>   -20.0089     0.0000     8.0000 </r>
       <r>   -19.8087     0.0000     8.0000 </r>
       <r>   -19.6086     0.0000     8.0000 </r>
       <r>   -19.4084     0.0000     8.0000 </r>
       <r>   -19.2083     0.0000     8.0000 </r>
       <r>   -19.0081     0.0000     8.0000 </r>
       <r>   -18.8080     0.0000     8.0000 </r>
       <r>   -18.6078     0.0000     8.0000 </r>
       <r>   -18.4077     0.0000     8.0000 </r>
       <r>   -18.2075     0.0000     8.0000 </r>
       <r>   -18.0074     0.0000     8.0000 </r>
       <r>   -17.8072     0.0000     8.0000 </r>
       <r>   -17.6071     0.0000     8.0000 </r>
       <r>   -17.4070     0.0000     8.0000 </r>
       <r>   -17.2068     0.0000     8.0000 </r>
       <r>   -17.0067     0.0000     8.0000 </r>
       <r>   -16.8065     0.0000     8.0000 </r>
       <r>   -16.6064     0.0000     8.0000 </r>
       <r>   -16.4062     0.0000     8.0000 </r>
       <r>   -16.2061     0.0000     8.0000 </r>
       <r>   -16.0059     0.0000     8.0000 </r>
       <r>   -15.8058     0.0000     8.0000 </r>
       <r>   -15.6056     0.0000     8.0000 </r>
       <r>   -15.4055     0.0000     8.0000 </r>
       <r>   -15.2053     0.0000     8.0000 </r>
       <r>   -15.0052     0.0000     8.0000 </r>
       <r>   -14.8050     0.0000     8.0000 </r>
       <r>   -14.6049     0.0000     8.0000 </r>
       <r>   -14.4047     0.0000     8.0000 </r>
       <r>   -14.2046     0.0000     8.0000 </r>
       <r>   -14.0044     0.0000     8.0000 </r>
       <r>   -13.8043     0.0000     8.0000 </r>
       <r>   -13.6042     0.0000     8.0000 </r>
       <r>   -13.4040     0.0000     8.0000 </r>
       <r>   -13.2039     0.0000     8.0000 </r>
       <r>   -13.0037     0.0000     8.0000 </r>
       <r>   -12.8036     0.0002     8.0000 </r>
       <r>   -12.6034     0.4334     8.0868 </r>
       <r>   -12.4033     3.0761     8.7025 </r>
       <r>   -12.2031     5.0849     9.7202 </r>
       <r>   -12.0030    10.0981    11.7413 </r>
       <r>   -11.8028    18.1464    15.3732 </r>
       <r>   -11.6027     3.1315    16.0000 </r>
       <r>   -11.4025     0.0000    16.0000 </r>
       <r>   -11.2024     0.0000    16.0000 </r>
       <r>   -11.0022     0.0000    16.0000 </r>
       <r>   -10.8021     0.0000    16.0000 </r>
       <r>   -10.6019     0.0000    16.0000 </r>
       <r>   -10.4018     0.0000    16.0000 </r>
       <r>   -10.2016     0.0000    16.0000 </r>
       <r>   -10.0015     0.0000    16.0000 </r>
       <r>    -9.8014     0.0000    16.0000 </r>
       <r>    -9.6012     0.0000    16.0000 </r>
       <r>    -9.4011     0.0000    16.0000 </r>
       <r>    -9.2009     0.0000    16.0000 </r>
       <r>    -9.0008     0.0000    16.0000 </r>
       <r>    -8.8006     0.0000    16.0000 </r>
       <r>    -8.6005     0.0000    16.0000 </r>
       <r>    -8.4003     0.0000    16.0000 </r>
       <r>    -8.2002     0.0000    16.0000 </r>
       <r>    -8.0000     0.0000    16.0000 </r>
       <r>    -7.7999     0.0000    16.0000 </r>
       <r>    -7.5997     0.0000    16.0000 </r>
       <r>    -7.3996     0.0000    16.0000 </r>
       <r>    -7.1994     0.0000    16.0000 </r>
       <r>    -6.9993     0.0000    16.0000 </r>
       <r>    -6.7991     0.0000    16.0000 </r>
       <r>    -6.5990     0.0000    16.0000 </r>
       <r>    -6.3988     0.0000    16.0000 </r>
       <r>    -6.1987     0.0000    16.0000 </r>
       <r>    -5.9986     0.0000    16.0000 </r>
       <r>    -5.7984     0.0000    16.0000 </r>
       <r>    -5.5983     0.0000    16.0000 </r>
       <r>    -5.3981     0.0000    16.0000 </r>
       <r>    -5.1980     0.0000    16.0000 </r>
       <r>    -4.9978     0.0000    16.0000 </r>
       <r>    -4.7977     0.0000    16.0000 </r>
       <r>    -4.5975     0.0000    16.0000 </r>
       <r>    -4.3974     0.0000    16.0000 </r>
       <r>    -4.1972     0.0000    16.0000 </r>
       <r>    -3.9971     0.0000    16.0000 </r>
       <r>    -3.7969     0.0000    16.0000 </r>
       <r>    -3.5968     0.0000    16.0000 </r>
       <r>    -3.3966     0.0000    16.0000 </r>
       <r>    -3.1965     0.0000    16.0000 </r>
       <r>    -2.9963     0.0000    16.0000 </r>
       <r>    -2.7962     0.0000    16.0000 </r>
       <r>    -2.5960     0.0000    16.0000 </r>
       <r>    -2.3959     0.0027    16.0005 </r>
       <r>    -2.1958     0.8059    16.1618 </r>
       <r>    -1.9956     2.3653    16.6353 </r>
       <r>    -1.7955    14.9946    19.6364 </r>
       <r>    -1.5953     2.7916    20.1951 </r>
       <r>    -1.3952    10.6940    22.3355 </r>
       <r>    -1.1950     4.0653    23.1492 </r>
       <r>    -0.9949     5.6392    24.2778 </r>
       <r>    -0.7947     1.8262    24.6433 </r>
       <r>    -0.5946     7.3326    26.1109 </r>
       <r>    -0.3944     8.2607    27.7643 </r>
       <r>    -0.1943     6.5249    29.0702 </r>
       <r>     0.0059    12.0718    31.4864 </r>
       <r>     0.2060    12.1077    33.9097 </r>
       <r>     0.4062    11.4789    36.2072 </r>
       <r>     0.6063    12.1333    38.6356 </r>
       <r>     0.8065     4.9522    39.6268 </r>
       <r>     1.0066     1.8647    40.0000 </r>
       <r>     1.2068     0.0000    40.0000 </r>
       <r>     1.4069     0.0000    40.0000 </r>
       <r>     1.6071     0.0000    40.0000 </r>
       <r>     1.8072     0.0000    40.0000 </r>
       <r>     2.0073     0.0000    40.0000 </r>
       <r>     2.2075     0.0000    40.0000 </r>
       <r>     2.4076     0.0000    40.0000 </r>
       <r>     2.6078     0.0000    40.0000 </r>
       <r>     2.8079     0.0000    40.0000 </r>
       <r>     3.0081     0.0000    40.0000 </r>
       <r>     3.2082     0.0000    40.0000 </r>
       <r>     3.4084     0.0000    40.0000 </r>
       <r>     3.6085     0.0000    40.0000 </r>
       <r>     3.8087     0.0000    40.0000 </r>
       <r>     4.0088     0.0000    40.0000 </r>
       <r>     4.2090     0.0000    40.0000 </r>
       <r>     4.4091     0.0000    40.0000 </r>
       <r>     4.6093     0.0000    40.0000 </r>
       <r>     4.8094     0.0000    40.0000 </r>
       <r>     5.0096     0.0000    40.0000 </r>
       <r>     5.2097     0.0000    40.0000 </r>
       <r>     5.4099     0.0000    40.0000 </r>
       <r>     5.6100     0.0000    40.0000 </r>
       <r>     5.8101     0.0000    40.0000 </r>
       <r>     6.0103     0.0000    40.0000 </r>
       <r>     6.2104     0.0000    40.0000 </r>
       <r>     6.4106     0.0000    40.0000 </r>
       <r>     6.6107     0.0000    40.0000 </r>
       <r>     6.8109     0.0000    40.0000 </r>
       <r>     7.0110     0.0000    40.0000 </r>
       <r>     7.2112     0.0804    40.0161 </r>
       <r>     7.4113     0.1820    40.0525 </r>
       <r>     7.6115     0.5183    40.1562 </r>
       <r>     7.8116     0.0001    40.1563 </r>
       <r>     8.0118     1.3566    40.4278 </r>
       <r>     8.2119     4.6187    41.3522 </r>
       <r>     8.4121     2.5882    41.8702 </r>
       <r>     8.6122     2.9961    42.4699 </r>
       <r>     8.8124     1.4122    42.7525 </r>
       <r>     9.0125    10.9843    44.9510 </r>
       <r>     9.2127     2.6368    45.4788 </r>
       <r>     9.4128     5.4113    46.5618 </r>
       <r>     9.6129     8.6852    48.3001 </r>
       <r>     9.8131     1.3329    48.5669 </r>
       <r>    10.0132     3.2630    49.2200 </r>
       <r>    10.2134     4.6071    50.1421 </r>
       <r>    10.4135     5.7165    51.2862 </r>
       <r>    10.6137    15.5486    54.3982 </r>
       <r>    10.8138     1.6806    54.7346 </r>
       <r>    11.0140     1.3062    54.9961 </r>
       <r>    11.2141     1.8335    55.3630 </r>
       <r>    11.4143     0.8727    55.5377 </r>
       <r>    11.6144     1.4231    55.8225 </r>
       <r>    11.8146     0.7305    55.9687 </r>
       <r>    12.0147     0.0000    55.9688 </r>
       <r>    12.2149     0.0000    55.9688 </r>
       <r>    12.4150     0.0000    55.9688 </r>
       <r>    12.6152     0.0031    55.9694 </r>
       <r>    12.8153     0.1530    56.0000 </r>
       <r>    13.0155     0.0000    56.0000 </r>
       <r>    13.2156     0.0000    56.0000 </r>
       <r>    13.4157     0.0000    56.0000 </r>
       <r>    13.6159     0.0000    56.0000 </r>
       <r>    13.8160     0.0000    56.0000 </r>
       <r>    14.0162     0.0000    56.0000 </r>
       <r>    14.2163     0.0000    56.0000 </r>
       <r>    14.4165     0.0000    56.0000 </r>
       <r>    14.6166     0.0000    56.0000 </r>
       <r>    14.8168     0.0000    56.0000 </r>
       <r>    15.0169     0.0000    56.0000 </r>
       <r>    15.2171     0.0000    56.0000 </r>
       <r>    15.4172     0.0000    56.0000 </r>
      </set>
     </set>
    </array>
   </total>
   <partial>
    <array>
     <dimension dim="1">gridpoints</dimension>
     <dimension dim="2">spin</dimension>
     <dimension dim="3">ion</dimension>
     <field>energy</field>
     <field>    s</field>
     <field>   py</field>
     <field>   pz</field>
     <field>   px</field>
     <field>  dxy</field>
     <field>  dyz</field>
     <field>  dz2</field>
     <field>  dxz</field>
     <field>x2-y2</field>
     <set>
      <set comment="ion 1">
       <set comment="spin 1">
        <r>   -44.6270     0.0000     0.0000     0.0000     0.0000     0.0000     0.0000     0.0000     0.0000     0.0000 </r>
        <r>   -44.4269     0.0000     0.0000     0.0000     0.0000     0.0000     0.0000     0.0000     0.0000     0.0000 </r>
        <r>   -44.2267     0.0000     0.0000     0.0000     0.0000     0.0000     0.0000     0.0000     0.0000     0.0000 </r>
        <r>   -44.0266     0.0000     0.0000     0.0000     0.0000     0.0000     0.0000     0.0000     0.0000     0.0000 </r>
        <r>   -43.8264     0.0000     0.0000     0.0000     0.0000     0.0000     0.0000     0.0000     0.0000     0.0000 </r>
        <r>   -43.6263     0.0000     0.0000     0.0000     0.0000     0.0000     0.0000     0.0000     0.0000     0.0000 </r>
        <r>   -43.4261     0.0000     0.0000     0.0000     0.0000     0.0000     0.0000     0.0000     0.0000     0.0000 </r>
        <r>   -43.2260     0.0000     0.0000     0.0000     0.0000     0.0000     0.0000     0.0000     0.0000     0.0000 </r>
        <r>   -43.0258     0.0000     0.0000     0.0000     0.0000     0.0000     0.0000     0.0000     0.0000     0.0000 </r>
        <r>   -42.8257     0.0000     0.0000     0.0000     0.0000     0.0000     0.0000     0.0000     0.0000     0.0000 </r>
        <r>   -42.6255     0.0000     0.0000     0.0000     0.0000     0.0000     0.0000     0.0000     0.0000     0.0000 </r>
        <r>   -42.4254     0.0000     0.0000     0.0000     0.0000     0.0000     0.0000     0.0000     0.0000     0.0000 </r>
        <r>   -42.2252     0.0000     0.0000     0.0000     0.0000     0.0000     0.0000     0.0000     0.0000     0.0000 </r>
        <r>   -42.0251     0.0010     0.0000     0.0000     0.0000     0.0000     0.0000     0.0000     0.0000     0.0000 </r>
        <r>   -41.8249     9.6355     0.0000     0.0000     0.0000     0.0000     0.0000     0.0000     0.0000     0.0000 </r>
        <r>   -41.6248     0.2513     0.0000     0.0000     0.0000     0.0000     0.0000     0.0000     0.0000     0.0000 </r>
        <r>   -41.4246     0.0000     0.0000     0.0000     0.0000     0.0000     0.0000     0.0000     0.0000     0.0000 </r>
        <r>   -41.2245     0.0000     0.0000     0.0000     0.0000     0.0000     0.0000     0.0000     0.0000     0.0000 </r>
        <r>   -41.0243     0.0000     0.0000     0.0000     0.0000     0.0000     0.0000     0.0000     0.0000     0.0000 </r>
        <r>   -40.8242     0.0000     0.0000     0.0000     0.0000     0.0000     0.0000     0.0000     0.0000     0.0000 </r>
        <r>   -40.6240     0.0000     0.0000     0.0000     0.0000     0.0000     0.0000     0.0000     0.0000     0.0000 </r>
        <r>   -40.4239     0.0000     0.0000     0.0000     0.0000     0.0000     0.0000     0.0000     0.0000     0.0000 </r>
        <r>   -40.2238     0.0000     0.0000     0.0000     0.0000     0.0000     0.0000     0.0000     0.0000     0.0000 </r>
        <r>   -40.0236     0.0000     0.0000     0.0000     0.0000     0.0000     0.0000     0.0000     0.0000     0.0000 </r>
        <r>   -39.8235     0.0000     0.0000     0.0000     0.0000     0.0000     0.0000     0.0000     0.0000     0.0000 </r>
        <r>   -39.6233     0.0000     0.0000     0.0000     0.0000     0.0000     0.0000     0.0000     0.0000     0.0000 </r>
        <r>   -39.4232     0.0000     0.0000     0.0000     0.0000     0.0000     0.0000     0.0000     0.0000     0.0000 </r>
        <r>   -39.2230     0.0000     0.0000     0.0000     0.0000     0.0000     0.0000     0.0000     0.0000     0.0000 </r>
        <r>   -39.0229     0.0000     0.0000     0.0000     0.0000     0.0000     0.0000     0.0000     0.0000     0.0000 </r>
        <r>   -38.8227     0.0000     0.0000     0.0000     0.0000     0.0000     0.0000     0.0000     0.0000     0.0000 </r>
        <r>   -38.6226     0.0000     0.0000     0.0000     0.0000     0.0000     0.0000     0.0000     0.0000     0.0000 </r>
        <r>   -38.4224     0.0000     0.0000     0.0000     0.0000     0.0000     0.0000     0.0000     0.0000     0.0000 </r>
        <r>   -38.2223     0.0000     0.0000     0.0000     0.0000     0.0000     0.0000     0.0000     0.0000     0.0000 </r>
        <r>   -38.0221     0.0000     0.0000     0.0000     0.0000     0.0000     0.0000     0.0000     0.0000     0.0000 </r>
        <r>   -37.8220     0.0000     0.0000     0.0000     0.0000     0.0000     0.0000     0.0000     0.0000     0.0000 </r>
        <r>   -37.6218     0.0000     0.0000     0.0000     0.0000     0.0000     0.0000     0.0000     0.0000     0.0000 </r>
        <r>   -37.4217     0.0000     0.0000     0.0000     0.0000     0.0000     0.0000     0.0000     0.0000     0.0000 </r>
        <r>   -37.2215     0.0000     0.0000     0.0000     0.0000     0.0000     0.0000     0.0000     0.0000     0.0000 </r>
        <r>   -37.0214     0.0000     0.0000     0.0000     0.0000     0.0000     0.0000     0.0000     0.0000     0.0000 </r>
        <r>   -36.8212     0.0000     0.0000     0.0000     0.0000     0.0000     0.0000     0.0000     0.0000     0.0000 </r>
        <r>   -36.6211     0.0000     0.0000     0.0000     0.0000     0.0000     0.0000     0.0000     0.0000     0.0000 </r>
        <r>   -36.4210     0.0000     0.0000     0.0000     0.0000     0.0000     0.0000     0.0000     0.0000     0.0000 </r>
        <r>   -36.2208     0.0000     0.0000     0.0000     0.0000     0.0000     0.0000     0.0000     0.0000     0.0000 </r>
        <r>   -36.0207     0.0000     0.0000     0.0000     0.0000     0.0000     0.0000     0.0000     0.0000     0.0000 </r>
        <r>   -35.8205     0.0000     0.0000     0.0000     0.0000     0.0000     0.0000     0.0000     0.0000     0.0000 </r>
        <r>   -35.6204     0.0000     0.0000     0.0000     0.0000     0.0000     0.0000     0.0000     0.0000     0.0000 </r>
        <r>   -35.4202     0.0000     0.0000     0.0000     0.0000     0.0000     0.0000     0.0000     0.0000     0.0000 </r>
        <r>   -35.2201     0.0000     0.0000     0.0000     0.0000     0.0000     0.0000     0.0000     0.0000     0.0000 </r>
        <r>   -35.0199     0.0000     0.0000     0.0000     0.0000     0.0000     0.0000     0.0000     0.0000     0.0000 </r>
        <r>   -34.8198     0.0000     0.0000     0.0000     0.0000     0.0000     0.0000     0.0000     0.0000     0.0000 </r>
        <r>   -34.6196     0.0000     0.0000     0.0000     0.0000     0.0000     0.0000     0.0000     0.0000     0.0000 </r>
        <r>   -34.4195     0.0000     0.0000     0.0000     0.0000     0.0000     0.0000     0.0000     0.0000     0.0000 </r>
        <r>   -34.2193     0.0000     0.0000     0.0000     0.0000     0.0000     0.0000     0.0000     0.0000     0.0000 </r>
        <r>   -34.0192     0.0000     0.0000     0.0000     0.0000     0.0000     0.0000     0.0000     0.0000     0.0000 </r>
        <r>   -33.8190     0.0000     0.0000     0.0000     0.0000     0.0000     0.0000     0.0000     0.0000     0.0000 </r>
        <r>   -33.6189     0.0000     0.0000     0.0000     0.0000     0.0000     0.0000     0.0000     0.0000     0.0000 </r>
        <r>   -33.4187     0.0000     0.0000     0.0000     0.0000     0.0000     0.0000     0.0000     0.0000     0.0000 </r>
        <r>   -33.2186     0.0000     0.0000     0.0000     0.0000     0.0000     0.0000     0.0000     0.0000     0.0000 </r>
        <r>   -33.0184     0.0000     0.0000     0.0000     0.0000     0.0000     0.0000     0.0000     0.0000     0.0000 </r>
        <r>   -32.8183     0.0000     0.0000     0.0000     0.0000     0.0000     0.0000     0.0000     0.0000     0.0000 </r>
        <r>   -32.6182     0.0000     0.0000     0.0000     0.0000     0.0000     0.0000     0.0000     0.0000     0.0000 </r>
        <r>   -32.4180     0.0000     0.0000     0.0000     0.0000     0.0000     0.0000     0.0000     0.0000     0.0000 </r>
        <r>   -32.2179     0.0000     0.0000     0.0000     0.0000     0.0000     0.0000     0.0000     0.0000     0.0000 </r>
        <r>   -32.0177     0.0000     0.0000     0.0000     0.0000     0.0000     0.0000     0.0000     0.0000     0.0000 </r>
        <r>   -31.8176     0.0000     0.0000     0.0000     0.0000     0.0000     0.0000     0.0000     0.0000     0.0000 </r>
        <r>   -31.6174     0.0000     0.0000     0.0000     0.0000     0.0000     0.0000     0.0000     0.0000     0.0000 </r>
        <r>   -31.4173     0.0000     0.0000     0.0000     0.0000     0.0000     0.0000     0.0000     0.0000     0.0000 </r>
        <r>   -31.2171     0.0000     0.0000     0.0000     0.0000     0.0000     0.0000     0.0000     0.0000     0.0000 </r>
        <r>   -31.0170     0.0000     0.0000     0.0000     0.0000     0.0000     0.0000     0.0000     0.0000     0.0000 </r>
        <r>   -30.8168     0.0000     0.0000     0.0000     0.0000     0.0000     0.0000     0.0000     0.0000     0.0000 </r>
        <r>   -30.6167     0.0000     0.0000     0.0000     0.0000     0.0000     0.0000     0.0000     0.0000     0.0000 </r>
        <r>   -30.4165     0.0000     0.0000     0.0000     0.0000     0.0000     0.0000     0.0000     0.0000     0.0000 </r>
        <r>   -30.2164     0.0000     0.0000     0.0000     0.0000     0.0000     0.0000     0.0000     0.0000     0.0000 </r>
        <r>   -30.0162     0.0000     0.0000     0.0000     0.0000     0.0000     0.0000     0.0000     0.0000     0.0000 </r>
        <r>   -29.8161     0.0000     0.0000     0.0000     0.0000     0.0000     0.0000     0.0000     0.0000     0.0000 </r>
        <r>   -29.6159     0.0000     0.0000     0.0000     0.0000     0.0000     0.0000     0.0000     0.0000     0.0000 </r>
        <r>   -29.4158     0.0000     0.0000     0.0000     0.0000     0.0000     0.0000     0.0000     0.0000     0.0000 </r>
        <r>   -29.2156     0.0000     0.0000     0.0000     0.0000     0.0000     0.0000     0.0000     0.0000     0.0000 </r>
        <r>   -29.0155     0.0000     0.0000     0.0000     0.0000     0.0000     0.0000     0.0000     0.0000     0.0000 </r>
        <r>   -28.8154     0.0000     0.0000     0.0000     0.0000     0.0000     0.0000     0.0000     0.0000     0.0000 </r>
        <r>   -28.6152     0.0000     0.0000     0.0000     0.0000     0.0000     0.0000     0.0000     0.0000     0.0000 </r>
        <r>   -28.4151     0.0000     0.0000     0.0000     0.0000     0.0000     0.0000     0.0000     0.0000     0.0000 </r>
        <r>   -28.2149     0.0000     0.0000     0.0000     0.0000     0.0000     0.0000     0.0000     0.0000     0.0000 </r>
        <r>   -28.0148     0.0000     0.0000     0.0000     0.0000     0.0000     0.0000     0.0000     0.0000     0.0000 </r>
        <r>   -27.8146     0.0000     0.0000     0.0000     0.0000     0.0000     0.0000     0.0000     0.0000     0.0000 </r>
        <r>   -27.6145     0.0000     0.0000     0.0000     0.0000     0.0000     0.0000     0.0000     0.0000     0.0000 </r>
        <r>   -27.4143     0.0000     0.0000     0.0000     0.0000     0.0000     0.0000     0.0000     0.0000     0.0000 </r>
        <r>   -27.2142     0.0000     0.0000     0.0000     0.0000     0.0000     0.0000     0.0000     0.0000     0.0000 </r>
        <r>   -27.0140     0.0000     0.0000     0.0000     0.0000     0.0000     0.0000     0.0000     0.0000     0.0000 </r>
        <r>   -26.8139     0.0000     0.0000     0.0000     0.0000     0.0000     0.0000     0.0000     0.0000     0.0000 </r>
        <r>   -26.6137     0.0000     0.0000     0.0000     0.0000     0.0000     0.0000     0.0000     0.0000     0.0000 </r>
        <r>   -26.4136     0.0000     0.0000     0.0000     0.0000     0.0000     0.0000     0.0000     0.0000     0.0000 </r>
        <r>   -26.2134     0.0000     0.0000     0.0000     0.0000     0.0000     0.0000     0.0000     0.0000     0.0000 </r>
        <r>   -26.0133     0.0000     0.0000     0.0000     0.0000     0.0000     0.0000     0.0000     0.0000     0.0000 </r>
        <r>   -25.8131     0.0000     0.0000     0.0000     0.0000     0.0000     0.0000     0.0000     0.0000     0.0000 </r>
        <r>   -25.6130     0.0000     0.0000     0.0000     0.0000     0.0000     0.0000     0.0000     0.0000     0.0000 </r>
        <r>   -25.4128     0.0000     0.0000     0.0000     0.0000     0.0000     0.0000     0.0000     0.0000     0.0000 </r>
        <r>   -25.2127     0.0000     0.0000     0.0000     0.0000     0.0000     0.0000     0.0000     0.0000     0.0000 </r>
        <r>   -25.0126     0.0000     0.0000     0.0000     0.0000     0.0000     0.0000     0.0000     0.0000     0.0000 </r>
        <r>   -24.8124     0.0000     0.0000     0.0000     0.0000     0.0000     0.0000     0.0000     0.0000     0.0000 </r>
        <r>   -24.6123     0.0000     0.0000     0.0000     0.0000     0.0000     0.0000     0.0000     0.0000     0.0000 </r>
        <r>   -24.4121     0.0000     0.0000     0.0000     0.0000     0.0000     0.0000     0.0000     0.0000     0.0000 </r>
        <r>   -24.2120     0.0000     0.0000     0.0000     0.0000     0.0000     0.0000     0.0000     0.0000     0.0000 </r>
        <r>   -24.0118     0.0000     0.0000     0.0000     0.0000     0.0000     0.0000     0.0000     0.0000     0.0000 </r>
        <r>   -23.8117     0.0000     0.0000     0.0000     0.0000     0.0000     0.0000     0.0000     0.0000     0.0000 </r>
        <r>   -23.6115     0.0000     0.0000     0.0000     0.0000     0.0000     0.0000     0.0000     0.0000     0.0000 </r>
        <r>   -23.4114     0.0000     0.0000     0.0000     0.0000     0.0000     0.0000     0.0000     0.0000     0.0000 </r>
        <r>   -23.2112     0.0000     0.0000     0.0000     0.0000     0.0000     0.0000     0.0000     0.0000     0.0000 </r>
        <r>   -23.0111     0.0000     0.0000     0.0000     0.0000     0.0000     0.0000     0.0000     0.0000     0.0000 </r>
        <r>   -22.8109     0.0000     0.0000     0.0000     0.0000     0.0000     0.0000     0.0000     0.0000     0.0000 </r>
        <r>   -22.6108     0.0000     0.0000     0.0000     0.0000     0.0000     0.0000     0.0000     0.0000     0.0000 </r>
        <r>   -22.4106     0.0000     0.0000     0.0000     0.0000     0.0000     0.0000     0.0000     0.0000     0.0000 </r>
        <r>   -22.2105     0.0000     0.0000     0.0000     0.0000     0.0000     0.0000     0.0000     0.0000     0.0000 </r>
        <r>   -22.0103     0.0000     0.0000     0.0000     0.0000     0.0000     0.0000     0.0000     0.0000     0.0000 </r>
        <r>   -21.8102     0.0000     0.0000     0.0000     0.0000     0.0000     0.0000     0.0000     0.0000     0.0000 </r>
        <r>   -21.6100     0.0000     0.0000     0.0000     0.0000     0.0000     0.0000     0.0000     0.0000     0.0000 </r>
        <r>   -21.4099     0.0000     0.0000     0.0000     0.0000     0.0000     0.0000     0.0000     0.0000     0.0000 </r>
        <r>   -21.2098     0.0000     0.0000     0.0000     0.0000     0.0000     0.0000     0.0000     0.0000     0.0000 </r>
        <r>   -21.0096     0.0000     0.0000     0.0000     0.0000     0.0000     0.0000     0.0000     0.0000     0.0000 </r>
        <r>   -20.8095     0.0000     0.0000     0.0000     0.0000     0.0000     0.0000     0.0000     0.0000     0.0000 </r>
        <r>   -20.6093     0.0000     0.0000     0.0000     0.0000     0.0000     0.0000     0.0000     0.0000     0.0000 </r>
        <r>   -20.4092     0.0000     0.0000     0.0000     0.0000     0.0000     0.0000     0.0000     0.0000     0.0000 </r>
        <r>   -20.2090     0.0000     0.0000     0.0000     0.0000     0.0000     0.0000     0.0000     0.0000     0.0000 </r>
        <r>   -20.0089     0.0000     0.0000     0.0000     0.0000     0.0000     0.0000     0.0000     0.0000     0.0000 </r>
        <r>   -19.8087     0.0000     0.0000     0.0000     0.0000     0.0000     0.0000     0.0000     0.0000     0.0000 </r>
        <r>   -19.6086     0.0000     0.0000     0.0000     0.0000     0.0000     0.0000     0.0000     0.0000     0.0000 </r>
        <r>   -19.4084     0.0000     0.0000     0.0000     0.0000     0.0000     0.0000     0.0000     0.0000     0.0000 </r>
        <r>   -19.2083     0.0000     0.0000     0.0000     0.0000     0.0000     0.0000     0.0000     0.0000     0.0000 </r>
        <r>   -19.0081     0.0000     0.0000     0.0000     0.0000     0.0000     0.0000     0.0000     0.0000     0.0000 </r>
        <r>   -18.8080     0.0000     0.0000     0.0000     0.0000     0.0000     0.0000     0.0000     0.0000     0.0000 </r>
        <r>   -18.6078     0.0000     0.0000     0.0000     0.0000     0.0000     0.0000     0.0000     0.0000     0.0000 </r>
        <r>   -18.4077     0.0000     0.0000     0.0000     0.0000     0.0000     0.0000     0.0000     0.0000     0.0000 </r>
        <r>   -18.2075     0.0000     0.0000     0.0000     0.0000     0.0000     0.0000     0.0000     0.0000     0.0000 </r>
        <r>   -18.0074     0.0000     0.0000     0.0000     0.0000     0.0000     0.0000     0.0000     0.0000     0.0000 </r>
        <r>   -17.8072     0.0000     0.0000     0.0000     0.0000     0.0000     0.0000     0.0000     0.0000     0.0000 </r>
        <r>   -17.6071     0.0000     0.0000     0.0000     0.0000     0.0000     0.0000     0.0000     0.0000     0.0000 </r>
        <r>   -17.4070     0.0000     0.0000     0.0000     0.0000     0.0000     0.0000     0.0000     0.0000     0.0000 </r>
        <r>   -17.2068     0.0000     0.0000     0.0000     0.0000     0.0000     0.0000     0.0000     0.0000     0.0000 </r>
        <r>   -17.0067     0.0000     0.0000     0.0000     0.0000     0.0000     0.0000     0.0000     0.0000     0.0000 </r>
        <r>   -16.8065     0.0000     0.0000     0.0000     0.0000     0.0000     0.0000     0.0000     0.0000     0.0000 </r>
        <r>   -16.6064     0.0000     0.0000     0.0000     0.0000     0.0000     0.0000     0.0000     0.0000     0.0000 </r>
        <r>   -16.4062     0.0000     0.0000     0.0000     0.0000     0.0000     0.0000     0.0000     0.0000     0.0000 </r>
        <r>   -16.2061     0.0000     0.0000     0.0000     0.0000     0.0000     0.0000     0.0000     0.0000     0.0000 </r>
        <r>   -16.0059     0.0000     0.0000     0.0000     0.0000     0.0000     0.0000     0.0000     0.0000     0.0000 </r>
        <r>   -15.8058     0.0000     0.0000     0.0000     0.0000     0.0000     0.0000     0.0000     0.0000     0.0000 </r>
        <r>   -15.6056     0.0000     0.0000     0.0000     0.0000     0.0000     0.0000     0.0000     0.0000     0.0000 </r>
        <r>   -15.4055     0.0000     0.0000     0.0000     0.0000     0.0000     0.0000     0.0000     0.0000     0.0000 </r>
        <r>   -15.2053     0.0000     0.0000     0.0000     0.0000     0.0000     0.0000     0.0000     0.0000     0.0000 </r>
        <r>   -15.0052     0.0000     0.0000     0.0000     0.0000     0.0000     0.0000     0.0000     0.0000     0.0000 </r>
        <r>   -14.8050     0.0000     0.0000     0.0000     0.0000     0.0000     0.0000     0.0000     0.0000     0.0000 </r>
        <r>   -14.6049     0.0000     0.0000     0.0000     0.0000     0.0000     0.0000     0.0000     0.0000     0.0000 </r>
        <r>   -14.4047     0.0000     0.0000     0.0000     0.0000     0.0000     0.0000     0.0000     0.0000     0.0000 </r>
        <r>   -14.2046     0.0000     0.0000     0.0000     0.0000     0.0000     0.0000     0.0000     0.0000     0.0000 </r>
        <r>   -14.0044     0.0000     0.0000     0.0000     0.0000     0.0000     0.0000     0.0000     0.0000     0.0000 </r>
        <r>   -13.8043     0.0000     0.0000     0.0000     0.0000     0.0000     0.0000     0.0000     0.0000     0.0000 </r>
        <r>   -13.6042     0.0000     0.0000     0.0000     0.0000     0.0000     0.0000     0.0000     0.0000     0.0000 </r>
        <r>   -13.4040     0.0000     0.0000     0.0000     0.0000     0.0000     0.0000     0.0000     0.0000     0.0000 </r>
        <r>   -13.2039     0.0000     0.0000     0.0000     0.0000     0.0000     0.0000     0.0000     0.0000     0.0000 </r>
        <r>   -13.0037     0.0000     0.0000     0.0000     0.0000     0.0000     0.0000     0.0000     0.0000     0.0000 </r>
        <r>   -12.8036     0.0000     0.0000     0.0000     0.0000     0.0000     0.0000     0.0000     0.0000     0.0000 </r>
        <r>   -12.6034     0.0006     0.0000     0.0000     0.0000     0.0000     0.0000     0.0000     0.0000     0.0000 </r>
        <r>   -12.4033     0.0034     0.0001     0.0000     0.0002     0.0000     0.0000     0.0000     0.0000     0.0000 </r>
        <r>   -12.2031     0.0033     0.0002     0.0001     0.0005     0.0000     0.0000     0.0000     0.0000     0.0000 </r>
        <r>   -12.0030     0.0027     0.0009     0.0004     0.0012     0.0000     0.0000     0.0000     0.0000     0.0000 </r>
        <r>   -11.8028     0.0017     0.0010     0.0005     0.0016     0.0000     0.0000     0.0000     0.0000     0.0000 </r>
        <r>   -11.6027     0.0002     0.0001     0.0000     0.0002     0.0000     0.0000     0.0000     0.0000     0.0000 </r>
        <r>   -11.4025     0.0000     0.0000     0.0000     0.0000     0.0000     0.0000     0.0000     0.0000     0.0000 </r>
        <r>   -11.2024     0.0000     0.0000     0.0000     0.0000     0.0000     0.0000     0.0000     0.0000     0.0000 </r>
        <r>   -11.0022     0.0000     0.0000     0.0000     0.0000     0.0000     0.0000     0.0000     0.0000     0.0000 </r>
        <r>   -10.8021     0.0000     0.0000     0.0000     0.0000     0.0000     0.0000     0.0000     0.0000     0.0000 </r>
        <r>   -10.6019     0.0000     0.0000     0.0000     0.0000     0.0000     0.0000     0.0000     0.0000     0.0000 </r>
        <r>   -10.4018     0.0000     0.0000     0.0000     0.0000     0.0000     0.0000     0.0000     0.0000     0.0000 </r>
        <r>   -10.2016     0.0000     0.0000     0.0000     0.0000     0.0000     0.0000     0.0000     0.0000     0.0000 </r>
        <r>   -10.0015     0.0000     0.0000     0.0000     0.0000     0.0000     0.0000     0.0000     0.0000     0.0000 </r>
        <r>    -9.8014     0.0000     0.0000     0.0000     0.0000     0.0000     0.0000     0.0000     0.0000     0.0000 </r>
        <r>    -9.6012     0.0000     0.0000     0.0000     0.0000     0.0000     0.0000     0.0000     0.0000     0.0000 </r>
        <r>    -9.4011     0.0000     0.0000     0.0000     0.0000     0.0000     0.0000     0.0000     0.0000     0.0000 </r>
        <r>    -9.2009     0.0000     0.0000     0.0000     0.0000     0.0000     0.0000     0.0000     0.0000     0.0000 </r>
        <r>    -9.0008     0.0000     0.0000     0.0000     0.0000     0.0000     0.0000     0.0000     0.0000     0.0000 </r>
        <r>    -8.8006     0.0000     0.0000     0.0000     0.0000     0.0000     0.0000     0.0000     0.0000     0.0000 </r>
        <r>    -8.6005     0.0000     0.0000     0.0000     0.0000     0.0000     0.0000     0.0000     0.0000     0.0000 </r>
        <r>    -8.4003     0.0000     0.0000     0.0000     0.0000     0.0000     0.0000     0.0000     0.0000     0.0000 </r>
        <r>    -8.2002     0.0000     0.0000     0.0000     0.0000     0.0000     0.0000     0.0000     0.0000     0.0000 </r>
        <r>    -8.0000     0.0000     0.0000     0.0000     0.0000     0.0000     0.0000     0.0000     0.0000     0.0000 </r>
        <r>    -7.7999     0.0000     0.0000     0.0000     0.0000     0.0000     0.0000     0.0000     0.0000     0.0000 </r>
        <r>    -7.5997     0.0000     0.0000     0.0000     0.0000     0.0000     0.0000     0.0000     0.0000     0.0000 </r>
        <r>    -7.3996     0.0000     0.0000     0.0000     0.0000     0.0000     0.0000     0.0000     0.0000     0.0000 </r>
        <r>    -7.1994     0.0000     0.0000     0.0000     0.0000     0.0000     0.0000     0.0000     0.0000     0.0000 </r>
        <r>    -6.9993     0.0000     0.0000     0.0000     0.0000     0.0000     0.0000     0.0000     0.0000     0.0000 </r>
        <r>    -6.7991     0.0000     0.0000     0.0000     0.0000     0.0000     0.0000     0.0000     0.0000     0.0000 </r>
        <r>    -6.5990     0.0000     0.0000     0.0000     0.0000     0.0000     0.0000     0.0000     0.0000     0.0000 </r>
        <r>    -6.3988     0.0000     0.0000     0.0000     0.0000     0.0000     0.0000     0.0000     0.0000     0.0000 </r>
        <r>    -6.1987     0.0000     0.0000     0.0000     0.0000     0.0000     0.0000     0.0000     0.0000     0.0000 </r>
        <r>    -5.9986     0.0000     0.0000     0.0000     0.0000     0.0000     0.0000     0.0000     0.0000     0.0000 </r>
        <r>    -5.7984     0.0000     0.0000     0.0000     0.0000     0.0000     0.0000     0.0000     0.0000     0.0000 </r>
        <r>    -5.5983     0.0000     0.0000     0.0000     0.0000     0.0000     0.0000     0.0000     0.0000     0.0000 </r>
        <r>    -5.3981     0.0000     0.0000     0.0000     0.0000     0.0000     0.0000     0.0000     0.0000     0.0000 </r>
        <r>    -5.1980     0.0000     0.0000     0.0000     0.0000     0.0000     0.0000     0.0000     0.0000     0.0000 </r>
        <r>    -4.9978     0.0000     0.0000     0.0000     0.0000     0.0000     0.0000     0.0000     0.0000     0.0000 </r>
        <r>    -4.7977     0.0000     0.0000     0.0000     0.0000     0.0000     0.0000     0.0000     0.0000     0.0000 </r>
        <r>    -4.5975     0.0000     0.0000     0.0000     0.0000     0.0000     0.0000     0.0000     0.0000     0.0000 </r>
        <r>    -4.3974     0.0000     0.0000     0.0000     0.0000     0.0000     0.0000     0.0000     0.0000     0.0000 </r>
        <r>    -4.1972     0.0000     0.0000     0.0000     0.0000     0.0000     0.0000     0.0000     0.0000     0.0000 </r>
        <r>    -3.9971     0.0000     0.0000     0.0000     0.0000     0.0000     0.0000     0.0000     0.0000     0.0000 </r>
        <r>    -3.7969     0.0000     0.0000     0.0000     0.0000     0.0000     0.0000     0.0000     0.0000     0.0000 </r>
        <r>    -3.5968     0.0000     0.0000     0.0000     0.0000     0.0000     0.0000     0.0000     0.0000     0.0000 </r>
        <r>    -3.3966     0.0000     0.0000     0.0000     0.0000     0.0000     0.0000     0.0000     0.0000     0.0000 </r>
        <r>    -3.1965     0.0000     0.0000     0.0000     0.0000     0.0000     0.0000     0.0000     0.0000     0.0000 </r>
        <r>    -2.9963     0.0000     0.0000     0.0000     0.0000     0.0000     0.0000     0.0000     0.0000     0.0000 </r>
        <r>    -2.7962     0.0000     0.0000     0.0000     0.0000     0.0000     0.0000     0.0000     0.0000     0.0000 </r>
        <r>    -2.5960     0.0000     0.0000     0.0000     0.0000     0.0000     0.0000     0.0000     0.0000     0.0000 </r>
        <r>    -2.3959     0.0000     0.0000     0.0000     0.0000     0.0000     0.0000     0.0000     0.0000     0.0000 </r>
        <r>    -2.1958     0.0019     0.0006     0.0006     0.0006     0.0000     0.0000     0.0000     0.0000     0.0000 </r>
        <r>    -1.9956     0.0026     0.0036     0.0036     0.0000     0.0000     0.0000     0.0000     0.0000     0.0000 </r>
        <r>    -1.7955     0.0431     0.0061     0.0123     0.0064     0.0000     0.0000     0.0000     0.0000     0.0000 </r>
        <r>    -1.5953     0.0047     0.0030     0.0003     0.0030     0.0000     0.0000     0.0000     0.0000     0.0000 </r>
        <r>    -1.3952     0.0320     0.0097     0.0040     0.0004     0.0000     0.0000     0.0000     0.0000     0.0000 </r>
        <r>    -1.1950     0.0015     0.0001     0.0129     0.0000     0.0000     0.0000     0.0000     0.0000     0.0000 </r>
        <r>    -0.9949     0.0178     0.0021     0.0002     0.0023     0.0000     0.0000     0.0000     0.0000     0.0000 </r>
        <r>    -0.7947     0.0056     0.0003     0.0006     0.0004     0.0000     0.0000     0.0000     0.0000     0.0000 </r>
        <r>    -0.5946     0.0020     0.0057     0.0130     0.0010     0.0000     0.0000     0.0000     0.0000     0.0000 </r>
        <r>    -0.3944     0.0018     0.0047     0.0147     0.0022     0.0000     0.0000     0.0000     0.0000     0.0000 </r>
[...]
        <r>  0.3511  0.0000  0.0000  0.0000  0.0000  0.0000  0.0000  0.0000  0.0000 </r>
        <r>  0.1912  0.0000  0.0000  0.0000  0.0000  0.0000  0.0000  0.0000  0.0000 </r>
        <r>  0.0000  0.0000  0.0000  0.0000  0.0000  0.0000  0.0000  0.0000  0.0000 </r>
        <r>  0.0000  0.0000  0.0000  0.0000  0.0000  0.0000  0.0000  0.0000  0.0000 </r>
        <r>  0.0000  0.0000  0.0000  0.0000  0.0000  0.0000  0.0000  0.0000  0.0000 </r>
        <r>  0.0000  0.0000  0.0000  0.0000  0.0000  0.0000  0.0000  0.0000  0.0000 </r>
       </set>
       <set comment="band 5">
        <r>  0.0000  0.0000  0.0000  0.0001  0.0000  0.0000  0.0000  0.0000  0.0000 </r>
        <r>  0.0000  0.0000  0.0000  0.0003  0.0000  0.0000  0.0000  0.0000  0.0000 </r>
        <r>  0.0000  0.0003  0.0001  0.0000  0.0000  0.0000  0.0000  0.0000  0.0000 </r>
        <r>  0.0000  0.0001  0.0003  0.0000  0.0000  0.0000  0.0000  0.0000  0.0000 </r>
        <r>  0.2328  0.0000  0.0000  0.0000  0.0000  0.0000  0.0000  0.0000  0.0000 </r>
        <r>  0.4520  0.0000  0.0000  0.0000  0.0000  0.0000  0.0000  0.0000  0.0000 </r>
        <r>  0.0602  0.0000  0.0000  0.0000  0.0000  0.0000  0.0000  0.0000  0.0000 </r>
        <r>  0.0342  0.0000  0.0000  0.0000  0.0000  0.0000  0.0000  0.0000  0.0000 </r>
       </set>
       <set comment="band 6">
        <r>  0.0000  0.0004  0.0000  0.0000  0.0000  0.0000  0.0000  0.0000  0.0000 </r>
        <r>  0.0000  0.0000  0.0004  0.0001  0.0000  0.0000  0.0000  0.0000  0.0000 </r>
        <r>  0.0000  0.0001  0.0000  0.0000  0.0000  0.0000  0.0000  0.0000  0.0000 </r>
        <r>  0.0000  0.0000  0.0001  0.0004  0.0000  0.0000  0.0000  0.0000  0.0000 </r>
        <r>  0.0136  0.0000  0.0000  0.0000  0.0000  0.0000  0.0000  0.0000  0.0000 </r>
        <r>  0.0850  0.0000  0.0000  0.0000  0.0000  0.0000  0.0000  0.0000  0.0000 </r>
        <r>  0.0543  0.0000  0.0000  0.0000  0.0000  0.0000  0.0000  0.0000  0.0000 </r>
        <r>  0.6264  0.0000  0.0000  0.0000  0.0000  0.0000  0.0000  0.0000  0.0000 </r>
       </set>
       <set comment="band 7">
        <r>  0.0000  0.0000  0.0003  0.0001  0.0000  0.0000  0.0000  0.0000  0.0000 </r>
        <r>  0.0000  0.0003  0.0000  0.0001  0.0000  0.0000  0.0000  0.0000  0.0000 </r>
        <r>  0.0000  0.0001  0.0001  0.0003  0.0000  0.0000  0.0000  0.0000  0.0000 </r>
        <r>  0.0000  0.0001  0.0001  0.0000  0.0000  0.0000  0.0000  0.0000  0.0000 </r>
        <r>  0.1392  0.0000  0.0000  0.0000  0.0000  0.0000  0.0000  0.0000  0.0000 </r>
        <r>  0.1672  0.0000  0.0000  0.0000  0.0000  0.0000  0.0000  0.0000  0.0000 </r>
        <r>  0.4556  0.0000  0.0000  0.0000  0.0000  0.0000  0.0000  0.0000  0.0000 </r>
        <r>  0.0173  0.0000  0.0000  0.0000  0.0000  0.0000  0.0000  0.0000  0.0000 </r>
       </set>
       <set comment="band 8">
        <r>  0.0000  0.0001  0.0001  0.0002  0.0000  0.0000  0.0000  0.0000  0.0000 </r>
        <r>  0.0000  0.0001  0.0001  0.0000  0.0000  0.0000  0.0000  0.0000  0.0000 </r>
        <r>  0.0000  0.0000  0.0002  0.0001  0.0000  0.0000  0.0000  0.0000  0.0000 </r>
        <r>  0.0000  0.0002  0.0000  0.0001  0.0000  0.0000  0.0000  0.0000  0.0000 </r>
        <r>  0.3937  0.0000  0.0000  0.0000  0.0000  0.0000  0.0000  0.0000  0.0000 </r>
        <r>  0.0751  0.0000  0.0000  0.0000  0.0000  0.0000  0.0000  0.0000  0.0000 </r>
        <r>  0.2092  0.0000  0.0000  0.0000  0.0000  0.0000  0.0000  0.0000  0.0000 </r>
        <r>  0.1013  0.0000  0.0000  0.0000  0.0000  0.0000  0.0000  0.0000  0.0000 </r>
       </set>
       <set comment="band 9">
        <r>  0.0008  0.0000  0.0000  0.0000  0.0000  0.0000  0.0000  0.0000  0.0000 </r>
        <r>  0.0012  0.0000  0.0000  0.0000  0.0000  0.0000  0.0000  0.0000  0.0000 </r>
        <r>  0.0165  0.0000  0.0000  0.0000  0.0000  0.0000  0.0000  0.0000  0.0000 </r>
        <r>  0.0034  0.0000  0.0000  0.0000  0.0000  0.0000  0.0000  0.0000  0.0000 </r>
        <r>  0.0000  0.0253  0.1211  0.0058  0.0000  0.0000  0.0000  0.0000  0.0000 </r>
        <r>  0.0000  0.1211  0.0253  0.0092  0.0000  0.0000  0.0000  0.0000  0.0000 </r>
        <r>  0.0000  0.0092  0.0058  0.1211  0.0000  0.0000  0.0000  0.0000  0.0000 </r>
        <r>  0.0000  0.0058  0.0092  0.0253  0.0000  0.0000  0.0000  0.0000  0.0000 </r>
       </set>
       <set comment="band 10">
        <r>  0.0193  0.0000  0.0000  0.0000  0.0000  0.0000  0.0000  0.0000  0.0000 </r>
        <r>  0.0002  0.0000  0.0000  0.0000  0.0000  0.0000  0.0000  0.0000  0.0000 </r>
        <r>  0.0004  0.0000  0.0000  0.0000  0.0000  0.0000  0.0000  0.0000  0.0000 </r>
        <r>  0.0021  0.0000  0.0000  0.0000  0.0000  0.0000  0.0000  0.0000  0.0000 </r>
        <r>  0.0000  0.0151  0.0031  0.1416  0.0000  0.0000  0.0000  0.0000  0.0000 </r>
        <r>  0.0000  0.0031  0.0151  0.0017  0.0000  0.0000  0.0000  0.0000  0.0000 </r>
        <r>  0.0000  0.0017  0.1416  0.0031  0.0000  0.0000  0.0000  0.0000  0.0000 </r>
        <r>  0.0000  0.1416  0.0017  0.0151  0.0000  0.0000  0.0000  0.0000  0.0000 </r>
       </set>
       <set comment="band 11">
        <r>  0.0009  0.0000  0.0000  0.0000  0.0000  0.0000  0.0000  0.0000  0.0000 </r>
        <r>  0.0097  0.0000  0.0000  0.0000  0.0000  0.0000  0.0000  0.0000  0.0000 </r>
        <r>  0.0044  0.0000  0.0000  0.0000  0.0000  0.0000  0.0000  0.0000  0.0000 </r>
        <r>  0.0070  0.0000  0.0000  0.0000  0.0000  0.0000  0.0000  0.0000  0.0000 </r>
        <r>  0.0000  0.0516  0.0321  0.0063  0.0000  0.0000  0.0000  0.0000  0.0000 </r>
        <r>  0.0000  0.0321  0.0516  0.0715  0.0000  0.0000  0.0000  0.0000  0.0000 </r>
        <r>  0.0000  0.0715  0.0063  0.0321  0.0000  0.0000  0.0000  0.0000  0.0000 </r>
        <r>  0.0000  0.0063  0.0715  0.0516  0.0000  0.0000  0.0000  0.0000  0.0000 </r>
       </set>
       <set comment="band 12">
        <r>  0.0011  0.0000  0.0000  0.0000  0.0000  0.0000  0.0000  0.0000  0.0000 </r>
        <r>  0.0108  0.0000  0.0000  0.0000  0.0000  0.0000  0.0000  0.0000  0.0000 </r>
        <r>  0.0007  0.0000  0.0000  0.0000  0.0000  0.0000  0.0000  0.0000  0.0000 </r>
        <r>  0.0094  0.0000  0.0000  0.0000  0.0000  0.0000  0.0000  0.0000  0.0000 </r>
        <r>  0.0000  0.0694  0.0051  0.0078  0.0000  0.0000  0.0000  0.0000  0.0000 </r>
        <r>  0.0000  0.0051  0.0694  0.0792  0.0000  0.0000  0.0000  0.0000  0.0000 </r>
        <r>  0.0000  0.0792  0.0078  0.0051  0.0000  0.0000  0.0000  0.0000  0.0000 </r>
        <r>  0.0000  0.0078  0.0792  0.0694  0.0000  0.0000  0.0000  0.0000  0.0000 </r>
       </set>
       <set comment="band 13">
        <r>  0.0000  0.0000  0.0000  0.0000  0.0000  0.0000  0.0000  0.0000  0.0000 </r>
        <r>  0.0000  0.0000  0.0000  0.0000  0.0000  0.0000  0.0000  0.0000  0.0000 </r>
        <r>  0.0000  0.0000  0.0000  0.0000  0.0000  0.0000  0.0000  0.0000  0.0000 </r>
        <r>  0.0000  0.0000  0.0000  0.0000  0.0000  0.0000  0.0000  0.0000  0.0000 </r>
        <r>  0.0000  0.0141  0.0061  0.0275  0.0000  0.0000  0.0000  0.0000  0.0000 </r>
        <r>  0.0000  0.0423  0.0046  0.0062  0.0000  0.0000  0.0000  0.0000  0.0000 </r>
        <r>  0.0000  0.2072  0.0213  0.0777  0.0000  0.0000  0.0000  0.0000  0.0000 </r>
        <r>  0.0000  0.0005  0.2552  0.0343  0.0000  0.0000  0.0000  0.0000  0.0000 </r>
       </set>
       <set comment="band 14">
        <r>  0.0000  0.0000  0.0000  0.0000  0.0000  0.0000  0.0000  0.0000  0.0000 </r>
        <r>  0.0000  0.0000  0.0000  0.0000  0.0000  0.0000  0.0000  0.0000  0.0000 </r>
        <r>  0.0000  0.0000  0.0000  0.0000  0.0000  0.0000  0.0000  0.0000  0.0000 </r>
        <r>  0.0000  0.0000  0.0000  0.0000  0.0000  0.0000  0.0000  0.0000  0.0000 </r>
        <r>  0.0000  0.0632  0.1376  0.0031  0.0000  0.0000  0.0000  0.0000  0.0000 </r>
        <r>  0.0000  0.0896  0.0242  0.0378  0.0000  0.0000  0.0000  0.0000  0.0000 </r>
        <r>  0.0000  0.0324  0.0104  0.1723  0.0000  0.0000  0.0000  0.0000  0.0000 </r>
        <r>  0.0000  0.0036  0.0748  0.0478  0.0000  0.0000  0.0000  0.0000  0.0000 </r>
       </set>
       <set comment="band 15">
        <r>  0.0000  0.0000  0.0000  0.0000  0.0000  0.0000  0.0000  0.0000  0.0000 </r>
        <r>  0.0000  0.0000  0.0000  0.0000  0.0000  0.0000  0.0000  0.0000  0.0000 </r>
        <r>  0.0000  0.0000  0.0000  0.0000  0.0000  0.0000  0.0000  0.0000  0.0000 </r>
        <r>  0.0000  0.0000  0.0000  0.0000  0.0000  0.0000  0.0000  0.0000  0.0000 </r>
        <r>  0.0000  0.0030  0.0119  0.0708  0.0000  0.0000  0.0000  0.0000  0.0000 </r>
        <r>  0.0000  0.0069  0.0378  0.0370  0.0000  0.0000  0.0000  0.0000  0.0000 </r>
        <r>  0.0000  0.0328  0.1743  0.0167  0.0000  0.0000  0.0000  0.0000  0.0000 </r>
        <r>  0.0000  0.2232  0.0210  0.0614  0.0000  0.0000  0.0000  0.0000  0.0000 </r>
       </set>
       <set comment="band 16">
        <r>  0.0000  0.0000  0.0000  0.0000  0.0000  0.0000  0.0000  0.0000  0.0000 </r>
        <r>  0.0000  0.0000  0.0000  0.0000  0.0000  0.0000  0.0000  0.0000  0.0000 </r>
        <r>  0.0000  0.0000  0.0000  0.0000  0.0000  0.0000  0.0000  0.0000  0.0000 </r>
        <r>  0.0000  0.0000  0.0000  0.0000  0.0000  0.0000  0.0000  0.0000  0.0000 </r>
        <r>  0.0000  0.1757  0.0277  0.0048  0.0000  0.0000  0.0000  0.0000  0.0000 </r>
        <r>  0.0000  0.0478  0.1876  0.0734  0.0000  0.0000  0.0000  0.0000  0.0000 </r>
        <r>  0.0000  0.0267  0.0057  0.0163  0.0000  0.0000  0.0000  0.0000  0.0000 </r>
        <r>  0.0000  0.0141  0.0121  0.1049  0.0000  0.0000  0.0000  0.0000  0.0000 </r>
       </set>
       <set comment="band 17">
        <r>  0.0000  0.0000  0.0000  0.0000  0.0000  0.0000  0.0000  0.0000  0.0000 </r>
        <r>  0.0000  0.0000  0.0000  0.0000  0.0000  0.0000  0.0000  0.0000  0.0000 </r>
        <r>  0.0000  0.0000  0.0000  0.0000  0.0000  0.0000  0.0000  0.0000  0.0000 </r>
        <r>  0.0000  0.0000  0.0000  0.0000  0.0000  0.0000  0.0000  0.0000  0.0000 </r>
        <r>  0.0000  0.1112  0.1118  0.0633  0.0000  0.0000  0.0000  0.0000  0.0000 </r>
        <r>  0.0000  0.0045  0.0144  0.1430  0.0000  0.0000  0.0000  0.0000  0.0000 </r>
        <r>  0.0000  0.0681  0.0065  0.0789  0.0000  0.0000  0.0000  0.0000  0.0000 </r>
        <r>  0.0000  0.0293  0.0140  0.0519  0.0000  0.0000  0.0000  0.0000  0.0000 </r>
       </set>
       <set comment="band 18">
        <r>  0.0000  0.0000  0.0000  0.0000  0.0000  0.0000  0.0000  0.0000  0.0000 </r>
        <r>  0.0000  0.0000  0.0000  0.0000  0.0000  0.0000  0.0000  0.0000  0.0000 </r>
        <r>  0.0000  0.0000  0.0000  0.0000  0.0000  0.0000  0.0000  0.0000  0.0000 </r>
        <r>  0.0000  0.0000  0.0000  0.0000  0.0000  0.0000  0.0000  0.0000  0.0000 </r>
        <r>  0.0000  0.0284  0.0057  0.0748  0.0000  0.0000  0.0000  0.0000  0.0000 </r>
        <r>  0.0000  0.0074  0.1206  0.0951  0.0000  0.0000  0.0000  0.0000  0.0000 </r>
        <r>  0.0000  0.0304  0.1764  0.0004  0.0000  0.0000  0.0000  0.0000  0.0000 </r>
        <r>  0.0000  0.0252  0.0235  0.1090  0.0000  0.0000  0.0000  0.0000  0.0000 </r>
       </set>
       <set comment="band 19">
        <r>  0.0000  0.0000  0.0000  0.0000  0.0000  0.0000  0.0000  0.0000  0.0000 </r>
        <r>  0.0000  0.0000  0.0000  0.0000  0.0000  0.0000  0.0000  0.0000  0.0000 </r>
        <r>  0.0000  0.0000  0.0000  0.0000  0.0000  0.0000  0.0000  0.0000  0.0000 </r>
        <r>  0.0000  0.0000  0.0000  0.0000  0.0000  0.0000  0.0000  0.0000  0.0000 </r>
        <r>  0.0000  0.0289  0.0656  0.0977  0.0000  0.0000  0.0000  0.0000  0.0000 </r>
        <r>  0.0000  0.1599  0.0136  0.0501  0.0000  0.0000  0.0000  0.0000  0.0000 </r>
        <r>  0.0000  0.0643  0.0440  0.0227  0.0000  0.0000  0.0000  0.0000  0.0000 </r>
        <r>  0.0000  0.0429  0.0544  0.0525  0.0000  0.0000  0.0000  0.0000  0.0000 </r>
       </set>
       <set comment="band 20">
        <r>  0.0000  0.0000  0.0000  0.0000  0.0000  0.0000  0.0000  0.0000  0.0000 </r>
        <r>  0.0000  0.0000  0.0000  0.0000  0.0000  0.0000  0.0000  0.0000  0.0000 </r>
        <r>  0.0000  0.0000  0.0000  0.0000  0.0000  0.0000  0.0000  0.0000  0.0000 </r>
        <r>  0.0000  0.0000  0.0000  0.0000  0.0000  0.0000  0.0000  0.0000  0.0000 </r>
        <r>  0.0000  0.0400  0.0981  0.1227  0.0000  0.0000  0.0000  0.0000  0.0000 </r>
        <r>  0.0000  0.1062  0.0617  0.0219  0.0000  0.0000  0.0000  0.0000  0.0000 </r>
        <r>  0.0000  0.0027  0.0260  0.0795  0.0000  0.0000  0.0000  0.0000  0.0000 </r>
        <r>  0.0000  0.1258  0.0094  0.0028  0.0000  0.0000  0.0000  0.0000  0.0000 </r>
       </set>
       <set comment="band 21">
        <r>  0.0000  0.0215  0.0048  0.0023  0.0000  0.0000  0.0000  0.0000  0.0000 </r>
        <r>  0.0000  0.0048  0.0215  0.0006  0.0000  0.0000  0.0000  0.0000  0.0000 </r>
        <r>  0.0000  0.0006  0.0023  0.0048  0.0000  0.0000  0.0000  0.0000  0.0000 </r>
        <r>  0.0000  0.0023  0.0006  0.0215  0.0000  0.0000  0.0000  0.0000  0.0000 </r>
        <r>  0.0071  0.0000  0.0000  0.0000  0.0000  0.0000  0.0000  0.0000  0.0000 </r>
        <r>  0.0020  0.0000  0.0000  0.0000  0.0000  0.0000  0.0000  0.0000  0.0000 </r>
        <r>  0.0148  0.0000  0.0000  0.0000  0.0000  0.0000  0.0000  0.0000  0.0000 </r>
        <r>  0.0668  0.0000  0.0000  0.0000  0.0000  0.0000  0.0000  0.0000  0.0000 </r>
       </set>
       <set comment="band 22">
        <r>  0.0000  0.0050  0.0077  0.0138  0.0000  0.0000  0.0000  0.0000  0.0000 </r>
        <r>  0.0000  0.0077  0.0050  0.0027  0.0000  0.0000  0.0000  0.0000  0.0000 </r>
        <r>  0.0000  0.0027  0.0138  0.0077  0.0000  0.0000  0.0000  0.0000  0.0000 </r>
        <r>  0.0000  0.0138  0.0027  0.0050  0.0000  0.0000  0.0000  0.0000  0.0000 </r>
        <r>  0.0429  0.0000  0.0000  0.0000  0.0000  0.0000  0.0000  0.0000  0.0000 </r>
        <r>  0.0084  0.0000  0.0000  0.0000  0.0000  0.0000  0.0000  0.0000  0.0000 </r>
        <r>  0.0240  0.0000  0.0000  0.0000  0.0000  0.0000  0.0000  0.0000  0.0000 </r>
        <r>  0.0154  0.0000  0.0000  0.0000  0.0000  0.0000  0.0000  0.0000  0.0000 </r>
       </set>
       <set comment="band 23">
        <r>  0.0000  0.0001  0.0127  0.0130  0.0000  0.0000  0.0000  0.0000  0.0000 </r>
        <r>  0.0000  0.0127  0.0001  0.0034  0.0000  0.0000  0.0000  0.0000  0.0000 </r>
        <r>  0.0000  0.0034  0.0130  0.0127  0.0000  0.0000  0.0000  0.0000  0.0000 </r>
        <r>  0.0000  0.0130  0.0034  0.0001  0.0000  0.0000  0.0000  0.0000  0.0000 </r>
        <r>  0.0403  0.0000  0.0000  0.0000  0.0000  0.0000  0.0000  0.0000  0.0000 </r>
        <r>  0.0105  0.0000  0.0000  0.0000  0.0000  0.0000  0.0000  0.0000  0.0000 </r>
        <r>  0.0396  0.0000  0.0000  0.0000  0.0000  0.0000  0.0000  0.0000  0.0000 </r>
        <r>  0.0003  0.0000  0.0000  0.0000  0.0000  0.0000  0.0000  0.0000  0.0000 </r>
       </set>
       <set comment="band 24">
        <r>  0.0000  0.0026  0.0039  0.0001  0.0000  0.0000  0.0000  0.0000  0.0000 </r>
        <r>  0.0000  0.0039  0.0026  0.0225  0.0000  0.0000  0.0000  0.0000  0.0000 </r>
        <r>  0.0000  0.0225  0.0001  0.0039  0.0000  0.0000  0.0000  0.0000  0.0000 </r>
        <r>  0.0000  0.0001  0.0225  0.0026  0.0000  0.0000  0.0000  0.0000  0.0000 </r>
        <r>  0.0004  0.0000  0.0000  0.0000  0.0000  0.0000  0.0000  0.0000  0.0000 </r>
        <r>  0.0698  0.0000  0.0000  0.0000  0.0000  0.0000  0.0000  0.0000  0.0000 </r>
        <r>  0.0122  0.0000  0.0000  0.0000  0.0000  0.0000  0.0000  0.0000  0.0000 </r>
        <r>  0.0081  0.0000  0.0000  0.0000  0.0000  0.0000  0.0000  0.0000  0.0000 </r>
       </set>
       <set comment="band 25">
        <r>  0.0000  0.0719  0.0083  0.0029  0.0000  0.0000  0.0000  0.0000  0.0000 </r>
        <r>  0.0000  0.0062  0.0173  0.0114  0.0000  0.0000  0.0000  0.0000  0.0000 </r>
        <r>  0.0000  0.0032  0.0025  0.0259  0.0000  0.0000  0.0000  0.0000  0.0000 </r>
        <r>  0.0000  0.0027  0.0255  0.0192  0.0000  0.0000  0.0000  0.0000  0.0000 </r>
        <r>  0.0000  0.0000  0.0000  0.0000  0.0000  0.0000  0.0000  0.0000  0.0000 </r>
        <r>  0.0000  0.0000  0.0000  0.0000  0.0000  0.0000  0.0000  0.0000  0.0000 </r>
        <r>  0.0000  0.0000  0.0000  0.0000  0.0000  0.0000  0.0000  0.0000  0.0000 </r>
        <r>  0.0000  0.0000  0.0000  0.0000  0.0000  0.0000  0.0000  0.0000  0.0000 </r>
       </set>
       <set comment="band 26">
        <r>  0.0000  0.0130  0.0006  0.0325  0.0000  0.0000  0.0000  0.0000  0.0000 </r>
        <r>  0.0000  0.0080  0.0074  0.0460  0.0000  0.0000  0.0000  0.0000  0.0000 </r>
        <r>  0.0000  0.0260  0.0007  0.0073  0.0000  0.0000  0.0000  0.0000  0.0000 </r>
        <r>  0.0000  0.0331  0.0176  0.0049  0.0000  0.0000  0.0000  0.0000  0.0000 </r>
        <r>  0.0000  0.0000  0.0000  0.0000  0.0000  0.0000  0.0000  0.0000  0.0000 </r>
        <r>  0.0000  0.0000  0.0000  0.0000  0.0000  0.0000  0.0000  0.0000  0.0000 </r>
        <r>  0.0000  0.0000  0.0000  0.0000  0.0000  0.0000  0.0000  0.0000  0.0000 </r>
        <r>  0.0000  0.0000  0.0000  0.0000  0.0000  0.0000  0.0000  0.0000  0.0000 </r>
       </set>
       <set comment="band 27">
        <r>  0.0000  0.0086  0.0519  0.0009  0.0000  0.0000  0.0000  0.0000  0.0000 </r>
        <r>  0.0000  0.0159  0.0082  0.0266  0.0000  0.0000  0.0000  0.0000  0.0000 </r>
        <r>  0.0000  0.0161  0.0072  0.0451  0.0000  0.0000  0.0000  0.0000  0.0000 </r>
        <r>  0.0000  0.0072  0.0055  0.0039  0.0000  0.0000  0.0000  0.0000  0.0000 </r>
        <r>  0.0000  0.0000  0.0000  0.0000  0.0000  0.0000  0.0000  0.0000  0.0000 </r>
        <r>  0.0000  0.0000  0.0000  0.0000  0.0000  0.0000  0.0000  0.0000  0.0000 </r>
        <r>  0.0000  0.0000  0.0000  0.0000  0.0000  0.0000  0.0000  0.0000  0.0000 </r>
        <r>  0.0000  0.0000  0.0000  0.0000  0.0000  0.0000  0.0000  0.0000  0.0000 </r>
       </set>
       <set comment="band 28">
        <r>  0.0000  0.0077  0.0037  0.0231  0.0000  0.0000  0.0000  0.0000  0.0000 </r>
        <r>  0.0000  0.0077  0.0060  0.0196  0.0000  0.0000  0.0000  0.0000  0.0000 </r>
        <r>  0.0000  0.0448  0.0058  0.0202  0.0000  0.0000  0.0000  0.0000  0.0000 </r>
        <r>  0.0000  0.0383  0.0054  0.0149  0.0000  0.0000  0.0000  0.0000  0.0000 </r>
        <r>  0.0000  0.0000  0.0000  0.0000  0.0000  0.0000  0.0000  0.0000  0.0000 </r>
        <r>  0.0000  0.0000  0.0000  0.0000  0.0000  0.0000  0.0000  0.0000  0.0000 </r>
        <r>  0.0000  0.0000  0.0000  0.0000  0.0000  0.0000  0.0000  0.0000  0.0000 </r>
        <r>  0.0000  0.0000  0.0000  0.0000  0.0000  0.0000  0.0000  0.0000  0.0000 </r>
       </set>
      </set>
     </set>
    </set>
   </array>
  </projected>
 </calculation>
 <structure name="finalpos" >
  <crystal>
   <varray name="basis" >
    <v>       5.06101914      -0.00000000       0.00000000 </v>
    <v>       0.00000000       5.06101914       0.00000000 </v>
    <v>       0.00000000      -0.00000000       5.06101914 </v>
   </varray>
   <i name="volume">    129.63251308 </i>
   <varray name="rec_basis" >
    <v>       0.19758866      -0.00000000      -0.00000000 </v>
    <v>       0.00000000       0.19758866       0.00000000 </v>
    <v>      -0.00000000      -0.00000000       0.19758866 </v>
   </varray>
  </crystal>
  <varray name="positions" >
   <v>       0.00000000       0.00000000       0.00000000 </v>
   <v>       0.00000000       0.50000000       0.50000000 </v>
   <v>       0.50000000       0.00000000       0.50000000 </v>
   <v>       0.50000000       0.50000000       0.00000000 </v>
   <v>       0.50000000       0.00000000       0.00000000 </v>
   <v>       0.50000000       0.50000000       0.50000000 </v>
   <v>       0.00000000       0.00000000       0.50000000 </v>
   <v>       0.00000000       0.50000000       0.00000000 </v>
  </varray>
 </structure>
</modeling>
