 1
 REF_energy=-0.27567309 config_type=isolated_atom energy_sigma=0.00010000 energy=-.27567309880446206 cutoff=5.00000000 nneightol=1.20000000 pbc="T T T" Lattice="20.00000000       0.00000000       0.00000000       0.00000000      20.00000000       0.00000000       0.00000000       0.00000000      20.00000000" Properties=species:S:1:pos:R:3:REF_force_atom_sigma:R:1:Z:I:1:map_shift:I:3:n_neighb:I:1:force:R:3
 Cl             10.00000000     10.00000000     10.00000000      0.00000000      17      -1      -1      -1       0      0.00000000      0.00000000      0.00000000
 1
 REF_energy=-0.28663766 config_type=isolated_atom energy_sigma=0.00010000 energy=-.28663765998407148 cutoff=5.00000000 nneightol=1.20000000 pbc="T T T" Lattice="20.00000000       0.00000000       0.00000000       0.00000000      20.00000000       0.00000000       0.00000000       0.00000000      20.00000000" Properties=species:S:1:pos:R:3:REF_force_atom_sigma:R:1:Z:I:1:map_shift:I:3:n_neighb:I:1:force:R:3
 Li             10.00000000     10.00000000     10.00000000      0.00000000       3      -1      -1      -1       0      0.00000000      0.00000000      0.00000000
 64
 REF_virial="2.04200569       0.00000000       0.00000000       0.00000000       2.04102566       0.00000000       0.00000000       0.00000000       2.04102566" REF_energy=-243.90052513 config_type=test energy_sigma=0.00100000 force_sigma=0.03160000 virial_sigma=0.06320000 energy=-243.90628875330975 cutoff=5.00000000 nneightol=1.20000000 pbc="T T T" Lattice="10.12203829       0.00000000       0.00000000       0.00000000      10.12203829       0.00000000       0.00000000       0.00000000      10.12203829" Properties=species:S:1:pos:R:3:REF_forces:R:3:REF_force_atom_sigma:R:1:Z:I:1:map_shift:I:3:n_neighb:I:1:force:R:3
 Li              0.00999997      0.00000000      0.00000000     -0.01580500     -0.00000000     -0.00000000      0.00158050       3       0       0       0      32     -0.00929273     -0.00000000     -0.00000000
 Li              5.06101915      0.00000000      0.00000000      0.00482100     -0.00000000      0.00000000      0.00048210       3      -1       0       0      32     -0.00000000      0.00000000      0.00000000
 Li              0.00000000      5.06101915      0.00000000      0.00020042     -0.00000000      0.00000000      0.00002004       3       0      -1       0      32     -0.00000000     -0.00000000      0.00000000
 Li              5.06101915      5.06101915      0.00000000      0.00000469     -0.00000000     -0.00000000      0.00000047       3      -1      -1       0      32     -0.00000000     -0.00000000      0.00000000
 Li              0.00000000      0.00000000      5.06101915      0.00020042     -0.00000000      0.00000000      0.00002004       3       0       0      -1      32     -0.00000000      0.00000000     -0.00000000
 Li              5.06101915      0.00000000      5.06101915      0.00000469     -0.00000000     -0.00000000      0.00000047       3      -1       0      -1      32     -0.00000000      0.00000000     -0.00000000
 Li              0.00000000      5.06101915      5.06101915     -0.00019031     -0.00000000     -0.00000000      0.00001903       3       0      -1      -1      32     -0.00000000     -0.00000000     -0.00000000
 Li              5.06101915      5.06101915      5.06101915      0.00017065     -0.00000000      0.00000000      0.00001707       3      -1      -1      -1      32     -0.00000000     -0.00000000     -0.00000000
 Li              0.00000000      2.53050957      2.53050957     -0.00054772     -0.00000095     -0.00000095      0.00005477       3       0       0       0      32     -0.00125499     -0.00000238     -0.00000238
 Li              5.06101915      2.53050957      2.53050957      0.00042872      0.00000162      0.00000162      0.00004287       3      -1       0       0      32     -0.00000000      0.00000000      0.00000000
 Li              0.00000000      7.59152872      2.53050957     -0.00054772      0.00000095     -0.00000095      0.00005477       3       0      -1       0      32     -0.00125499      0.00000238     -0.00000238
 Li              5.06101915      7.59152872      2.53050957      0.00042872     -0.00000162      0.00000162      0.00004287       3      -1      -1       0      32     -0.00000000      0.00000000      0.00000000
 Li              0.00000000      2.53050957      7.59152872     -0.00054772     -0.00000095      0.00000095      0.00005477       3       0       0      -1      32     -0.00125499     -0.00000238      0.00000238
 Li              5.06101915      2.53050957      7.59152872      0.00042872      0.00000162     -0.00000162      0.00004287       3      -1       0      -1      32     -0.00000000      0.00000000      0.00000000
 Li              0.00000000      7.59152872      7.59152872     -0.00054772      0.00000095      0.00000095      0.00005477       3       0      -1      -1      32     -0.00125499      0.00000238      0.00000238
 Li              5.06101915      7.59152872      7.59152872      0.00042872     -0.00000162     -0.00000162      0.00004287       3      -1      -1      -1      32     -0.00000000      0.00000000      0.00000000
 Li              2.53050957      0.00000000      2.53050957      0.00032232     -0.00000000      0.00245375      0.00024748       3       0       0       0      32     -0.00011981      0.00000000      0.00113969
 Li              7.59152872      0.00000000      2.53050957      0.00032660     -0.00000000     -0.00243268      0.00024545       3      -1       0       0      32      0.00002244      0.00000000     -0.00127241
 Li              2.53050957      5.06101915      2.53050957     -0.00001362     -0.00000000     -0.00008212      0.00000832       3       0      -1       0      32      0.00000000     -0.00000000      0.00000000
 Li              7.59152872      5.06101915      2.53050957     -0.00000855     -0.00000000      0.00008154      0.00000820       3      -1      -1       0      32     -0.00000000     -0.00000000      0.00000000
 Li              2.53050957      0.00000000      7.59152872      0.00032232     -0.00000000     -0.00245375      0.00024748       3       0       0      -1      32     -0.00011981      0.00000000     -0.00113969
 Li              7.59152872      0.00000000      7.59152872      0.00032660     -0.00000000      0.00243268      0.00024545       3      -1       0      -1      32      0.00002244      0.00000000      0.00127241
 Li              2.53050957      5.06101915      7.59152872     -0.00001362     -0.00000000      0.00008212      0.00000832       3       0      -1      -1      32      0.00000000     -0.00000000     -0.00000000
 Li              7.59152872      5.06101915      7.59152872     -0.00000855     -0.00000000     -0.00008154      0.00000820       3      -1      -1      -1      32     -0.00000000     -0.00000000      0.00000000
 Li              2.53050957      2.53050957      0.00000000      0.00032232      0.00245375      0.00000000      0.00024748       3       0       0       0      32     -0.00011981      0.00113969      0.00000000
 Li              7.59152872      2.53050957      0.00000000      0.00032660     -0.00243268     -0.00000000      0.00024545       3      -1       0       0      32      0.00002244     -0.00127241      0.00000000
 Li              2.53050957      7.59152872      0.00000000      0.00032232     -0.00245375     -0.00000000      0.00024748       3       0      -1       0      32     -0.00011981     -0.00113969      0.00000000
 Li              7.59152872      7.59152872      0.00000000      0.00032660      0.00243268      0.00000000      0.00024545       3      -1      -1       0      32      0.00002244      0.00127241      0.00000000
 Li              2.53050957      2.53050957      5.06101915     -0.00001362     -0.00008212     -0.00000000      0.00000832       3       0       0      -1      32      0.00000000      0.00000000     -0.00000000
 Li              7.59152872      2.53050957      5.06101915     -0.00000855      0.00008154      0.00000000      0.00000820       3      -1       0      -1      32     -0.00000000      0.00000000     -0.00000000
 Li              2.53050957      7.59152872      5.06101915     -0.00001362      0.00008212      0.00000000      0.00000832       3       0      -1      -1      32      0.00000000     -0.00000000     -0.00000000
 Li              7.59152872      7.59152872      5.06101915     -0.00000855     -0.00008154     -0.00000000      0.00000820       3      -1      -1      -1      32     -0.00000000      0.00000000     -0.00000000
 Cl              2.53050957      0.00000000      0.00000000      0.00324296     -0.00000000      0.00000000      0.00032430      17       0       0       0      32      0.00254531      0.00000000      0.00000000
 Cl              7.59152872      0.00000000      0.00000000      0.00280966     -0.00000000      0.00000000      0.00028097      17      -1       0       0      32      0.00217985      0.00000000      0.00000000
 Cl              2.53050957      5.06101915      0.00000000      0.00012894     -0.00000000      0.00000000      0.00001289      17       0      -1       0      32      0.00000001     -0.00000001      0.00000000
 Cl              7.59152872      5.06101915      0.00000000      0.00013158     -0.00000000      0.00000000      0.00001316      17      -1      -1       0      32     -0.00000000     -0.00000001      0.00000000
 Cl              2.53050957      0.00000000      5.06101915      0.00012894     -0.00000000      0.00000000      0.00001289      17       0       0      -1      32      0.00000001      0.00000000     -0.00000001
 Cl              7.59152872      0.00000000      5.06101915      0.00013158     -0.00000000      0.00000000      0.00001316      17      -1       0      -1      32     -0.00000000      0.00000000     -0.00000001
 Cl              2.53050957      5.06101915      5.06101915     -0.00001793     -0.00000000     -0.00000000      0.00000179      17       0      -1      -1      32      0.00000001     -0.00000001     -0.00000001
 Cl              7.59152872      5.06101915      5.06101915      0.00000601     -0.00000000     -0.00000000      0.00000060      17      -1      -1      -1      32     -0.00000000     -0.00000001     -0.00000001
 Cl              2.53050957      2.53050957      2.53050957     -0.00003271     -0.00048740     -0.00048740      0.00006901      17       0       0       0      32      0.00056961     -0.00036980     -0.00036980
 Cl              7.59152872      2.53050957      2.53050957     -0.00002740      0.00049853      0.00049853      0.00007056      17      -1       0       0      32      0.00058257      0.00035398      0.00035398
 Cl              2.53050957      7.59152872      2.53050957     -0.00003271      0.00048740     -0.00048740      0.00006901      17       0      -1       0      32      0.00056961      0.00036981     -0.00036980
 Cl              7.59152872      7.59152872      2.53050957     -0.00002740     -0.00049853      0.00049853      0.00007056      17      -1      -1       0      32      0.00058257     -0.00035397      0.00035398
 Cl              2.53050957      2.53050957      7.59152872     -0.00003271     -0.00048740      0.00048740      0.00006901      17       0       0      -1      32      0.00056961     -0.00036980      0.00036981
 Cl              7.59152872      2.53050957      7.59152872     -0.00002740      0.00049853     -0.00049853      0.00007056      17      -1       0      -1      32      0.00058257      0.00035398     -0.00035397
 Cl              2.53050957      7.59152872      7.59152872     -0.00003271      0.00048740      0.00048740      0.00006901      17       0      -1      -1      32      0.00056961      0.00036981      0.00036981
 Cl              7.59152872      7.59152872      7.59152872     -0.00002740     -0.00049853     -0.00049853      0.00007056      17      -1      -1      -1      32      0.00058257     -0.00035397     -0.00035397
 Cl              0.00000000      0.00000000      2.53050957      0.00188425     -0.00000000     -0.00000524      0.00018843      17       0       0       0      32      0.00134209      0.00000000     -0.00000196
 Cl              5.06101915      0.00000000      2.53050957     -0.00128046     -0.00000000      0.00000259      0.00012805      17      -1       0       0      32     -0.00000001      0.00000000      0.00000001
 Cl              0.00000000      5.06101915      2.53050957      0.00020197     -0.00000000      0.00001301      0.00002024      17       0      -1       0      32      0.00000000     -0.00000001      0.00000001
 Cl              5.06101915      5.06101915      2.53050957     -0.00024549     -0.00000000      0.00000554      0.00002456      17      -1      -1       0      32     -0.00000001     -0.00000001      0.00000001
 Cl              0.00000000      0.00000000      7.59152872      0.00188425     -0.00000000      0.00000524      0.00018843      17       0       0      -1      32      0.00134209      0.00000000      0.00000198
 Cl              5.06101915      0.00000000      7.59152872     -0.00128046     -0.00000000     -0.00000259      0.00012805      17      -1       0      -1      32     -0.00000001      0.00000000      0.00000000
 Cl              0.00000000      5.06101915      7.59152872      0.00020197     -0.00000000     -0.00001301      0.00002024      17       0      -1      -1      32      0.00000000     -0.00000001     -0.00000000
 Cl              5.06101915      5.06101915      7.59152872     -0.00024549     -0.00000000     -0.00000554      0.00002456      17      -1      -1      -1      32     -0.00000001     -0.00000001     -0.00000000
 Cl              0.00000000      2.53050957      0.00000000      0.00188425     -0.00000524      0.00000000      0.00018843      17       0       0       0      32      0.00134209     -0.00000196      0.00000000
 Cl              5.06101915      2.53050957      0.00000000     -0.00128046      0.00000259     -0.00000000      0.00012805      17      -1       0       0      32     -0.00000001      0.00000001      0.00000000
 Cl              0.00000000      7.59152872      0.00000000      0.00188425      0.00000524      0.00000000      0.00018843      17       0      -1       0      32      0.00134209      0.00000198      0.00000000
 Cl              5.06101915      7.59152872      0.00000000     -0.00128046     -0.00000259     -0.00000000      0.00012805      17      -1      -1       0      32     -0.00000001      0.00000000      0.00000000
 Cl              0.00000000      2.53050957      5.06101915      0.00020197      0.00001301      0.00000000      0.00002024      17       0       0      -1      32      0.00000000      0.00000001     -0.00000001
 Cl              5.06101915      2.53050957      5.06101915     -0.00024549      0.00000554     -0.00000000      0.00002456      17      -1       0      -1      32     -0.00000001      0.00000001     -0.00000001
 Cl              0.00000000      7.59152872      5.06101915      0.00020197     -0.00001301      0.00000000      0.00002024      17       0      -1      -1      32      0.00000000     -0.00000000     -0.00000001
 Cl              5.06101915      7.59152872      5.06101915     -0.00024549     -0.00000554     -0.00000000      0.00002456      17      -1      -1      -1      32     -0.00000001     -0.00000000     -0.00000001
 64
 REF_virial="-1.09944786       0.00007553      -0.00001040       0.00007553      -1.08884503      -0.00045964      -0.00001040      -0.00045964      -1.09231397" REF_energy=-243.90548153 config_type=test energy_sigma=0.00100000 force_sigma=0.03160000 virial_sigma=0.06320000 energy=-243.89900742278667 cutoff=5.00000000 nneightol=1.20000000 pbc="T T T" Lattice="10.16848936       0.00000000       0.00000000       0.00000000      10.16848936       0.00000000       0.00000000       0.00000000      10.16848936" Properties=species:S:1:pos:R:3:REF_forces:R:3:REF_force_atom_sigma:R:1:Z:I:1:map_shift:I:3:n_neighb:I:1:force:R:3
 Li              0.01284738      0.01241552      0.00791302     -0.03601088     -0.00284819     -0.02823066      0.00458461       3       0       0       0      32     -0.02237683     -0.01476366     -0.01338118
 Li              5.07699912     10.16678817      0.00719065      0.03204741      0.00530678     -0.00671853      0.00331713       3       0      -1       0      32      0.01201530      0.00419902     -0.00293550
 Li              0.00356761      5.11355027     10.16463388     -0.00376316     -0.05160065     -0.00829290      0.00523981       3       0      -1      -1      32     -0.00288963     -0.04272318     -0.00669828
 Li              5.08157281      5.08434250      0.00228852      0.00417623      0.00615994     -0.00023785      0.00074460       3       0      -1       0      32     -0.00139122      0.00485452     -0.00196823
 Li              0.01134203     10.15261198      5.07856365     -0.00998756      0.02514957      0.02546777      0.00371599       3       0      -1       0      32     -0.01307393      0.01796556      0.01765803
 Li              5.10301124      0.00697650      5.08633613     -0.02300401     -0.01311999      0.00164861      0.00265337       3      -1       0      -1      32     -0.02494743     -0.01075401     -0.00114592
 Li              0.00382986      5.08030581      5.09226894     -0.00858492     -0.00154933      0.00262212      0.00091092       3       0       0      -1      32     -0.00431985      0.00453062      0.00131693
 Li              5.08168629      5.08425729      5.09207411      0.00338828      0.00401173     -0.00393153      0.00065598       3       0      -1      -1      32     -0.00206839     -0.00051129     -0.00386634
 Li             10.15702154      2.53632884      2.53376821      0.00731652      0.00084227      0.00601761      0.00095107       3      -1       0       0      32      0.00059474      0.00712577      0.00483303
 Li              5.09095883      2.55080430      2.55923896     -0.00317265     -0.00490241     -0.03073556      0.00312854       3      -1       0       0      32     -0.00355690     -0.00346924     -0.02103407
 Li             10.16439339      7.61742302      2.53791360      0.00445934      0.00361877      0.01259943      0.00138465       3      -1      -1       0      32      0.00003065      0.00353977      0.01150996
 Li              5.08487360      7.63283601      2.55818469     -0.00763748     -0.01831363     -0.02600079      0.00327072       3      -1      -1       0      32     -0.00936917     -0.01551678     -0.02082735
 Li              0.00445858      2.53801508      7.63410249     -0.01555290     -0.00582645     -0.00488355      0.00173115       3       0       0      -1      32     -0.01352708      0.00348577     -0.00290948
 Li              5.08501586      2.53357013      7.63393726      0.00168578      0.01593106      0.00871222      0.00182358       3      -1       0      -1      32     -0.00426738      0.01381884     -0.00077064
 Li             10.16694182      7.61757799      7.63045038      0.00299063      0.01207063     -0.00828120      0.00149406       3      -1      -1      -1      32     -0.00193531      0.01231259     -0.00077496
 Li              5.09462681      7.62451900      7.63280835     -0.01030784     -0.00614618     -0.00149944      0.00120944       3      -1      -1      -1      32     -0.01020532      0.00079097     -0.00386608
 Li              2.54066967     10.15924112      2.52625411     -0.00083276     -0.00542631      0.03824394      0.00386360       3       0      -1       0      32      0.00498472      0.00110682      0.02527142
 Li              7.61323686     10.15903073      2.55080999      0.00827718      0.00834882     -0.01798864      0.00214897       3      -1      -1       0      32      0.00226746      0.00628943     -0.00995380
 Li              2.53435148      5.06740576      2.54012616      0.01675852      0.02620519     -0.01652799      0.00352241       3       0       0       0      32      0.01534118      0.01987247     -0.01006054
 Li              7.62601478      5.08304104      2.53976559     -0.00425169      0.00395529     -0.01250582      0.00137883       3      -1       0       0      32     -0.00391695      0.00388972     -0.00619327
 Li              2.55773992      0.01723772      7.62362051     -0.02809551     -0.00959162     -0.00886019      0.00309816       3       0       0      -1      32     -0.01489258     -0.01289460     -0.00381210
 Li              7.61104331      0.00522406      7.62093511      0.03501827      0.00325553      0.01970151      0.00403116       3      -1       0      -1      32      0.01895318     -0.00226160      0.00626124
 Li              2.54681123      5.09625906      7.62158702     -0.00709234     -0.01412329      0.01690294      0.00231404       3       0      -1      -1      32      0.00028240     -0.01964757      0.00613124
 Li              7.60852600      5.08658781      7.62034961      0.02243136     -0.02046726      0.01949626      0.00360857       3      -1      -1      -1      32      0.01188537     -0.01837977      0.01160260
 Li              2.53277069      2.53368758      0.00842073      0.01668587      0.03528210     -0.02684205      0.00473681       3       0       0       0      32      0.00509930      0.01522887     -0.00945481
 Li              7.64009377      2.53095358      0.01618112     -0.02715577      0.01834667     -0.03584305      0.00485671       3      -1       0       0      32     -0.01087273      0.01291343     -0.02216907
 Li              2.52637532      7.64982827     10.16813621      0.03907608     -0.04903691      0.00013406      0.00627023       3       0      -1      -1      32      0.02580189     -0.03347655      0.00170227
 Li              7.63201602      7.62981383     10.16744129     -0.02855244     -0.00437766     -0.00098040      0.00289027       3      -1      -1      -1      32     -0.00854268     -0.00112680     -0.00012253
 Li              2.53303690      2.53336747      5.05680949      0.00741286      0.00495811      0.04496273      0.00458386       3       0       0       0      32      0.00266837      0.00628423      0.03053216
 Li              7.64258729      2.53763417      5.07870570     -0.00657016      0.00462386      0.02702249      0.00281915       3      -1       0       0      32     -0.00158740      0.00515585      0.01191188
 Li              2.54070892      7.62628221      5.09392264      0.00213018      0.01037708     -0.00502340      0.00117242       3       0      -1      -1      32      0.00036611      0.00812366     -0.00803589
 Li              7.63079184      7.61506230      5.08908285     -0.01082425      0.01043674      0.00600911      0.00161926       3      -1      -1      -1      32     -0.00450711      0.00830293      0.00018237
 Cl              2.55632487      0.00128550      0.01160438     -0.03868243      0.00653102     -0.02592114      0.00470201      17       0       0       0      32     -0.03102308      0.01017399     -0.02332123
 Cl              7.61621216      0.00166845     10.16640370      0.01387887     -0.02141944      0.01762025      0.00310143      17      -1       0      -1      32      0.00855990     -0.01485324      0.01542925
 Cl              2.55228127      5.07514307     10.16414345     -0.03844200      0.03724004      0.02549653      0.00592847      17       0       0      -1      32     -0.03128550      0.03651826      0.02693413
 Cl              7.62203819      5.08770563     10.16454571      0.01813147      0.01259459      0.03645783      0.00426210      17      -1      -1      -1      32      0.01206855      0.01206750      0.03843614
 Cl              2.53598891     10.16493415      5.09020575      0.01849172      0.01521754     -0.02438387      0.00341773      17       0      -1      -1      32      0.01612467      0.01468305     -0.01640764
 Cl              7.63113045      0.01269526      5.08941831     -0.00539040     -0.02372678     -0.00812230      0.00256513      17      -1       0      -1      32     -0.00344234     -0.01659600      0.00149954
 Cl              2.53145275      5.09807322      5.07417615      0.02605992     -0.03611052      0.02270620      0.00499866      17       0      -1       0      32      0.02385271     -0.03205991      0.02664196
 Cl              7.62841617      5.07006370      5.07835438      0.00416088      0.02764871      0.00752991      0.00289562      17      -1       0       0      32      0.00380941      0.02223576      0.01246160
 Cl              2.53755404      2.52908969      2.53437293      0.01119696      0.01194963      0.02594225      0.00306784      17       0       0       0      32      0.01448006      0.01298905      0.02341135
 Cl              7.63181519      2.54177824      2.53474703     -0.02131167     -0.00883861      0.02900401      0.00370613      17      -1       0       0      32     -0.01946197     -0.00755830      0.02214613
 Cl              2.54081233      7.62842919      2.55153775     -0.02695937     -0.00539016     -0.02954105      0.00403551      17       0      -1       0      32     -0.02182604     -0.00449336     -0.02752410
 Cl              7.62217669      7.63685297      2.55306760      0.02352416     -0.04132850     -0.02643144      0.00544064      17      -1      -1       0      32      0.02212545     -0.03783901     -0.02612442
 Cl              2.53137791      2.55434639      7.63206595      0.04815888     -0.03905171     -0.02415907      0.00665430      17       0       0      -1      32      0.04660658     -0.03324464     -0.02201867
 Cl              7.61867385      2.53955327      7.64113797      0.01071147      0.00026609     -0.04331361      0.00446192      17      -1       0      -1      32      0.01258645      0.00022303     -0.03468115
 Cl              2.54901729      7.63514110      7.62976187     -0.02556530     -0.02113766     -0.01047448      0.00347865      17       0      -1      -1      32     -0.02292014     -0.02359362     -0.00978845
 Cl              7.62933022      7.61776966      7.63356051     -0.00584787      0.01867169     -0.03150197      0.00370837      17      -1      -1      -1      32     -0.00377354      0.01510002     -0.02746813
 Cl             10.14749692     10.16177246      2.52708497      0.05402471      0.00363007      0.02150258      0.00582598      17      -1      -1       0      32      0.04981098      0.00445298      0.01288907
 Cl              5.08432623     10.15107125      2.55347698     -0.00300331      0.05955429     -0.01224614      0.00608745      17      -1      -1       0      32      0.00451770      0.05085298     -0.01306866
 Cl              0.00421565      5.07263410      2.53971342     -0.01559485      0.03767371      0.01070613      0.00421560      17       0       0       0      32     -0.01500863      0.03379449      0.00600564
 Cl              5.09221495      5.09134971      2.54076505     -0.02680321     -0.01929371      0.01702700      0.00371561      17      -1      -1       0      32     -0.02113787     -0.01675229      0.01070241
 Cl              0.00030424     10.16640685      7.64380273      0.00852763      0.00011866     -0.01498848      0.00172450      17       0      -1      -1      32      0.00731071      0.00616300     -0.01342678
 Cl              5.09311028     10.15941002      7.61792453     -0.03474424      0.03437338      0.01058083      0.00500065      17      -1      -1      -1      32     -0.02436174      0.03147177      0.00931835
 Cl             10.16005724      5.06658120      7.62865381      0.02187167      0.05716945     -0.02141615      0.00648488      17      -1       0      -1      32      0.01916731      0.05220751     -0.02056932
 Cl              5.09129470      5.08335972      7.64037584     -0.03031713      0.00314669     -0.06753863      0.00740979      17      -1       0      -1      32     -0.02188405      0.00583374     -0.05877442
 Cl             10.16051665      2.54898627     10.16005592      0.02921687     -0.02167012      0.04490548      0.00577903      17      -1       0      -1      32      0.02391828     -0.01532713      0.02930264
 Cl              5.08153173      2.55529958     10.16589192     -0.00035971     -0.06056479      0.03646633      0.00706967      17       0       0      -1      32      0.00039022     -0.05212660      0.02487170
 Cl              0.00347823      7.61089790     10.15459483     -0.00022211      0.04685407      0.05287454      0.00706475      17       0      -1      -1      32      0.00015621      0.03543649      0.04068982
 Cl              5.07515873      7.63230155     10.14813113      0.01719195     -0.00214430      0.07168393      0.00737479      17       0      -1      -1      32      0.01481648     -0.00817781      0.06149841
 Cl              0.01123903      2.53762614      5.09346242     -0.02357990     -0.00642850     -0.04128001      0.00479727      17       0       0      -1      32     -0.02026768     -0.00983998     -0.03070240
 Cl              5.08719547      2.54566250      5.08891161     -0.02475534     -0.00200655     -0.01904612      0.00312987      17      -1       0      -1      32     -0.02605888      0.00027511     -0.01256891
 Cl             10.15469092      7.64336436      5.10106641      0.02350599     -0.05618748     -0.04202352      0.00739969      17      -1      -1      -1      32      0.02053390     -0.05223046     -0.03284279
 Cl              5.08265372      7.62176995      5.08280564      0.02046749      0.00110893      0.02572692      0.00328941      17       0      -1       0      32      0.01957312     -0.00405215      0.02811585
 64