 64
 REF_virial="2.04195339       0.00000000       0.00000000       0.00000000       2.04092193       0.00000000       0.00000000       0.00000000       2.04092193" REF_energy=-243.90044942 config_type=test energy=-243.90619493290561 cutoff=5.00000000 nneightol=1.20000000 pbc="T T T" Lattice="10.12203829       0.00000000       0.00000000       0.00000000      10.12203829       0.00000000       0.00000000       0.00000000      10.12203829" Properties=species:S:1:pos:R:3:REF_forces:R:3:REF_force_atom_sigma:R:1:Z:I:1:map_shift:I:3:n_neighb:I:1:force:R:3
 Li              0.00000000      0.00000000      0.00000000      0.00282068      0.00000000      0.00000000      0.00028207       3       0       0       0      32      0.00217985      0.00000000      0.00000000
 Li              5.06101915      0.00000000      0.00000000      0.00325210      0.00000000      0.00000000      0.00032521       3      -1       0       0      32      0.00254529      0.00000000      0.00000000
 Li              0.00000000      5.06101915      0.00000000      0.00013707      0.00000000      0.00000000      0.00001371       3       0      -1       0      32     -0.00000000     -0.00000000      0.00000000
 Li              5.06101915      5.06101915      0.00000000      0.00013983      0.00000000      0.00000000      0.00001398       3      -1      -1       0      32     -0.00000000     -0.00000000      0.00000000
 Li              0.00000000      0.00000000      5.06101915      0.00013707      0.00000000      0.00000000      0.00001371       3       0       0      -1      32     -0.00000000      0.00000000     -0.00000000
 Li              5.06101915      0.00000000      5.06101915      0.00013983      0.00000000      0.00000000      0.00001398       3      -1       0      -1      32     -0.00000000      0.00000000     -0.00000000
 Li              0.00000000      5.06101915      5.06101915      0.00000023      0.00000000      0.00000000      0.00000002       3       0      -1      -1      32     -0.00000000     -0.00000000     -0.00000000
 Li              5.06101915      5.06101915      5.06101915      0.00000087      0.00000000      0.00000000      0.00000009       3      -1      -1      -1      32     -0.00000000     -0.00000000     -0.00000000
 Li              0.00000000      2.53050957      2.53050957     -0.00002799      0.00049239      0.00049239      0.00006969       3       0       0       0      32      0.00058257      0.00035397      0.00035397
 Li              5.06101915      2.53050957      2.53050957     -0.00001855     -0.00049126     -0.00049126      0.00006950       3      -1       0       0      32      0.00056959     -0.00036981     -0.00036981
 Li              0.00000000      7.59152872      2.53050957     -0.00002799     -0.00049239      0.00049239      0.00006969       3       0      -1       0      32      0.00058257     -0.00035397      0.00035397
 Li              5.06101915      7.59152872      2.53050957     -0.00001855      0.00049126     -0.00049126      0.00006950       3      -1      -1       0      32      0.00056959      0.00036981     -0.00036981
 Li              0.00000000      2.53050957      7.59152872     -0.00002799      0.00049239     -0.00049239      0.00006969       3       0       0      -1      32      0.00058257      0.00035397     -0.00035397
 Li              5.06101915      2.53050957      7.59152872     -0.00001855     -0.00049126      0.00049126      0.00006950       3      -1       0      -1      32      0.00056959     -0.00036981      0.00036981
 Li              0.00000000      7.59152872      7.59152872     -0.00002799     -0.00049239     -0.00049239      0.00006969       3       0      -1      -1      32      0.00058257     -0.00035397     -0.00035397
 Li              5.06101915      7.59152872      7.59152872     -0.00001855      0.00049126      0.00049126      0.00006950       3      -1      -1      -1      32      0.00056959      0.00036981      0.00036981
 Li              2.53050957      0.00000000      2.53050957      0.00189896      0.00000000     -0.00000505      0.00018990       3       0       0       0      32      0.00134209      0.00000000     -0.00000197
 Li              7.59152872      0.00000000      2.53050957     -0.00127924      0.00000000     -0.00000176      0.00012792       3      -1       0       0      32     -0.00000000      0.00000000      0.00000000
 Li              2.53050957      5.06101915      2.53050957      0.00022104      0.00000000     -0.00000112      0.00002210       3       0      -1       0      32      0.00000000     -0.00000000      0.00000000
 Li              7.59152872      5.06101915      2.53050957     -0.00024958      0.00000000      0.00000090      0.00002496       3      -1      -1       0      32     -0.00000000     -0.00000000      0.00000000
 Li              2.53050957      0.00000000      7.59152872      0.00189896      0.00000000      0.00000505      0.00018990       3       0       0      -1      32      0.00134209      0.00000000      0.00000198
 Li              7.59152872      0.00000000      7.59152872     -0.00127924      0.00000000      0.00000176      0.00012792       3      -1       0      -1      32     -0.00000000      0.00000000     -0.00000000
 Li              2.53050957      5.06101915      7.59152872      0.00022104      0.00000000      0.00000112      0.00002210       3       0      -1      -1      32      0.00000000     -0.00000000     -0.00000000
 Li              7.59152872      5.06101915      7.59152872     -0.00024958      0.00000000     -0.00000090      0.00002496       3      -1      -1      -1      32     -0.00000000     -0.00000000      0.00000000
 Li              2.53050957      2.53050957      0.00000000      0.00189896     -0.00000505      0.00000000      0.00018990       3       0       0       0      32      0.00134209     -0.00000197      0.00000000
 Li              7.59152872      2.53050957      0.00000000     -0.00127924     -0.00000176     -0.00000000      0.00012792       3      -1       0       0      32     -0.00000000      0.00000000      0.00000000
 Li              2.53050957      7.59152872      0.00000000      0.00189896      0.00000505      0.00000000      0.00018990       3       0      -1       0      32      0.00134209      0.00000198      0.00000000
 Li              7.59152872      7.59152872      0.00000000     -0.00127924      0.00000176     -0.00000000      0.00012792       3      -1      -1       0      32     -0.00000000     -0.00000000      0.00000000
 Li              2.53050957      2.53050957      5.06101915      0.00022104     -0.00000112      0.00000000      0.00002210       3       0       0      -1      32      0.00000000      0.00000000     -0.00000000
 Li              7.59152872      2.53050957      5.06101915     -0.00024958      0.00000090     -0.00000000      0.00002496       3      -1       0      -1      32     -0.00000000      0.00000000     -0.00000000
 Li              2.53050957      7.59152872      5.06101915      0.00022104      0.00000112      0.00000000      0.00002210       3       0      -1      -1      32      0.00000000     -0.00000000     -0.00000000
 Li              7.59152872      7.59152872      5.06101915     -0.00024958     -0.00000090     -0.00000000      0.00002496       3      -1      -1      -1      32     -0.00000000      0.00000000     -0.00000000
 Cl              2.54050954      0.00000000      0.00000000     -0.03087959      0.00000000     -0.00000000      0.00308796      17       0       0       0      32     -0.02804604     -0.00000000     -0.00000000
 Cl              7.59152872      0.00000000      0.00000000      0.00180468      0.00000000      0.00000000      0.00018047      17      -1       0       0      32      0.00000000      0.00000000      0.00000000
 Cl              2.53050957      5.06101915      0.00000000     -0.00062715      0.00000000     -0.00000000      0.00006272      17       0      -1       0      32      0.00000001     -0.00000001      0.00000000
 Cl              7.59152872      5.06101915      0.00000000      0.00104990      0.00000000      0.00000000      0.00010499      17      -1      -1       0      32      0.00000000     -0.00000001      0.00000000
 Cl              2.53050957      0.00000000      5.06101915     -0.00062715      0.00000000     -0.00000000      0.00006272      17       0       0      -1      32      0.00000001      0.00000000     -0.00000001
 Cl              7.59152872      0.00000000      5.06101915      0.00104990      0.00000000      0.00000000      0.00010499      17      -1       0      -1      32      0.00000000      0.00000000     -0.00000001
 Cl              2.53050957      5.06101915      5.06101915     -0.00017165      0.00000000     -0.00000000      0.00001716      17       0      -1      -1      32      0.00000001     -0.00000001     -0.00000001
 Cl              7.59152872      5.06101915      5.06101915      0.00023251      0.00000000      0.00000000      0.00002325      17      -1      -1      -1      32      0.00000000     -0.00000001     -0.00000001
 Cl              2.53050957      2.53050957      2.53050957     -0.00098933      0.00000129      0.00000129      0.00009893      17       0       0       0      32     -0.00131741     -0.00000719     -0.00000719
 Cl              7.59152872      2.53050957      2.53050957      0.00063886      0.00000684      0.00000684      0.00006389      17      -1       0       0      32      0.00000000      0.00000001      0.00000001
 Cl              2.53050957      7.59152872      2.53050957     -0.00098933     -0.00000129      0.00000129      0.00009893      17       0      -1       0      32     -0.00131741      0.00000720     -0.00000719
 Cl              7.59152872      7.59152872      2.53050957      0.00063886     -0.00000684      0.00000684      0.00006389      17      -1      -1       0      32      0.00000000     -0.00000000      0.00000001
 Cl              2.53050957      2.53050957      7.59152872     -0.00098933      0.00000129     -0.00000129      0.00009893      17       0       0      -1      32     -0.00131741     -0.00000719      0.00000720
 Cl              7.59152872      2.53050957      7.59152872      0.00063886      0.00000684     -0.00000684      0.00006389      17      -1       0      -1      32      0.00000000      0.00000001     -0.00000000
 Cl              2.53050957      7.59152872      7.59152872     -0.00098933     -0.00000129     -0.00000129      0.00009893      17       0      -1      -1      32     -0.00131741      0.00000720      0.00000720
 Cl              7.59152872      7.59152872      7.59152872      0.00063886     -0.00000684     -0.00000684      0.00006389      17      -1      -1      -1      32      0.00000000     -0.00000000     -0.00000000
 Cl              0.00000000      0.00000000      2.53050957      0.00258843      0.00000000     -0.00339054      0.00042656      17       0       0       0      32      0.00230966      0.00000000     -0.00361283
 Cl              5.06101915      0.00000000      2.53050957      0.00261211      0.00000000      0.00344426      0.00043227      17      -1       0       0      32      0.00234372      0.00000000      0.00367573
 Cl              0.00000000      5.06101915      2.53050957     -0.00000501      0.00000000     -0.00025813      0.00002582      17       0      -1       0      32     -0.00000000     -0.00000001      0.00000001
 Cl              5.06101915      5.06101915      2.53050957     -0.00000448      0.00000000      0.00027635      0.00002764      17      -1      -1       0      32     -0.00000001     -0.00000001      0.00000001
 Cl              0.00000000      0.00000000      7.59152872      0.00258843      0.00000000      0.00339054      0.00042656      17       0       0      -1      32      0.00230966      0.00000000      0.00361284
 Cl              5.06101915      0.00000000      7.59152872      0.00261211      0.00000000     -0.00344426      0.00043227      17      -1       0      -1      32      0.00234372      0.00000000     -0.00367571
 Cl              0.00000000      5.06101915      7.59152872     -0.00000501      0.00000000      0.00025813      0.00002582      17       0      -1      -1      32      0.00000000     -0.00000001      0.00000000
 Cl              5.06101915      5.06101915      7.59152872     -0.00000448      0.00000000     -0.00027635      0.00002764      17      -1      -1      -1      32     -0.00000001     -0.00000001     -0.00000000
 Cl              0.00000000      2.53050957      0.00000000      0.00258843     -0.00339054     -0.00000000      0.00042656      17       0       0       0      32      0.00230966     -0.00361283      0.00000000
 Cl              5.06101915      2.53050957      0.00000000      0.00261211      0.00344426      0.00000000      0.00043227      17      -1       0       0      32      0.00234372      0.00367573      0.00000000
 Cl              0.00000000      7.59152872      0.00000000      0.00258843      0.00339054      0.00000000      0.00042656      17       0      -1       0      32      0.00230966      0.00361284      0.00000000
 Cl              5.06101915      7.59152872      0.00000000      0.00261211     -0.00344426     -0.00000000      0.00043227      17      -1      -1       0      32      0.00234372     -0.00367571      0.00000000
 Cl              0.00000000      2.53050957      5.06101915     -0.00000501     -0.00025813     -0.00000000      0.00002582      17       0       0      -1      32     -0.00000000      0.00000001     -0.00000001
 Cl              5.06101915      2.53050957      5.06101915     -0.00000448      0.00027635      0.00000000      0.00002764      17      -1       0      -1      32     -0.00000001      0.00000001     -0.00000001
 Cl              0.00000000      7.59152872      5.06101915     -0.00000501      0.00025813      0.00000000      0.00002582      17       0      -1      -1      32      0.00000000      0.00000000     -0.00000001
 Cl              5.06101915      7.59152872      5.06101915     -0.00000448     -0.00027635     -0.00000000      0.00002764      17      -1      -1      -1      32     -0.00000001     -0.00000000     -0.00000001
 64
 REF_virial="-1.08410385      -0.00016506      -0.00132469      -0.00016506      -1.07854780      -0.00033889      -0.00132469      -0.00033889      -1.06708196" REF_energy=-243.87972833 config_type=test energy=-243.87699853862949 cutoff=5.00000000 nneightol=1.20000000 pbc="T T T" Lattice="10.16848936       0.00000000       0.00000000       0.00000000      10.16848936       0.00000000       0.00000000       0.00000000      10.16848936" Properties=species:S:1:pos:R:3:REF_forces:R:3:REF_force_atom_sigma:R:1:Z:I:1:map_shift:I:3:n_neighb:I:1:force:R:3
 Li              0.02268956      0.00001546     10.14560619     -0.05394328      0.01938868      0.02492437      0.00625062       3       0       0      -1      32     -0.03852258     -0.00104875      0.03415402
 Li              5.06951145      0.00713838      0.01523504      0.05809528      0.01507832     -0.02169893      0.00638221       3       0       0       0      32      0.02536722      0.00105342     -0.00584798
 Li              0.01239478      5.10696576     10.16249239     -0.01702011     -0.05429044     -0.01623290      0.00591662       3       0      -1      -1      32     -0.01489404     -0.04056551     -0.00628944
 Li              5.08343862      5.09151017     10.16642221      0.00627029     -0.01994752      0.00958753      0.00230031       3       0      -1      -1      32     -0.00489730     -0.01543058      0.00234189
 Li              0.01212419     10.13738720      5.08124274     -0.00842580      0.04808388      0.00909659      0.00496568       3       0      -1       0      32     -0.01461786      0.03745258      0.01783689
 Li              5.11089812      0.01132993      5.07732096     -0.03819664     -0.01161747      0.01910705      0.00442609       3      -1       0       0      32     -0.02847832     -0.01913194      0.01115238
 Li              0.00039220      5.07420462      5.09297575     -0.02939056     -0.00087008      0.01564825      0.00333081       3       0       0      -1      32     -0.01209693      0.01427853      0.01304831
 Li              5.06309168      5.09012817      5.10165222      0.04416608     -0.00905343     -0.02470902      0.00514115       3       0      -1      -1      32      0.02618361     -0.00878219     -0.01778788
 Li             10.14614349      2.53285956      2.52153430      0.03267907     -0.01166692      0.01954380      0.00398246       3      -1       0       0      32      0.01377474     -0.00343361      0.01939595
 Li              5.10850792      2.56903111      2.56181169     -0.02609880     -0.01906261     -0.03583469      0.00482561       3      -1       0       0      32     -0.01723614     -0.01795667     -0.02468736
 Li              0.00518623      7.62244636      2.54274018     -0.02904304      0.01499540      0.01029489      0.00342687       3       0      -1       0      32     -0.02103101      0.00894745      0.00858072
 Li              5.07113211      7.62892673      2.55226134      0.02323498     -0.03162131     -0.02125147      0.00446251       3       0      -1       0      32      0.00989172     -0.03185039     -0.02447632
 Li             10.16716349      2.54507252      7.62459028     -0.02149467     -0.00761043      0.01494003      0.00272607       3      -1       0      -1      32     -0.01484661     -0.00834306      0.01236099
 Li              5.08415062      2.52271344      7.62204246      0.01449291      0.02931142      0.03416289      0.00472896       3       0       0      -1      32      0.00431355      0.02664436      0.01682524
 Li              0.01464547      7.63617453      7.64201572     -0.02099321     -0.01745091     -0.01845580      0.00329525       3       0      -1      -1      32     -0.01998875     -0.01461212     -0.01135485
 Li              5.08946030      7.60743563      7.65429772      0.00225704      0.01664306     -0.03408953      0.00380024       3      -1      -1      -1      32     -0.00371900      0.02065238     -0.03202626
 Li              2.56083165     10.16315365      2.53295545     -0.03831426      0.01014303      0.02368974      0.00461743       3       0      -1       0      32     -0.01859026      0.00757706      0.01917198
 Li              7.60317473     10.14964857      2.56364903      0.02960034      0.00960815     -0.04737194      0.00566798       3      -1      -1       0      32      0.02190769      0.01007109     -0.03044707
 Li              2.52765695      5.08166717      2.53720008      0.02660983     -0.00956814     -0.02344753      0.00367344       3       0       0       0      32      0.01367107     -0.00619705     -0.00934277
 Li              7.64661777      5.06812762      2.54434934     -0.04708221      0.02614830     -0.01446339      0.00557643       3      -1       0       0      32     -0.03057530      0.02357218      0.00034906
 Li              2.56203641      0.02776974      7.61380070     -0.02261235     -0.00976752     -0.00451099      0.00250414       3       0       0      -1      32     -0.00283477     -0.00984845     -0.00090126
 Li              7.59465842      0.00246301      7.62414693      0.05161088      0.01938404      0.02880373      0.00622019       3      -1       0      -1      32      0.04147054      0.00404694      0.00561201
 Li              2.54666013      5.08682646      7.62207256     -0.01834144     -0.01315365      0.03135579      0.00386343       3       0      -1      -1      32     -0.00554462     -0.01691089      0.01660135
 Li              7.61081350      5.09744897      7.61114011      0.02680374     -0.04561208      0.02139627      0.00570675       3      -1      -1      -1      32      0.02040814     -0.03106892      0.01373694
 Li              2.52873359      2.52463295      0.00392656      0.02161863      0.04975952     -0.01356367      0.00559227       3       0       0       0      32      0.01598816      0.02260433      0.00887087
 Li              7.61674631      2.54315841      0.00966057      0.00298178     -0.00608011     -0.04208699      0.00426283       3      -1       0       0      32      0.01511688     -0.00877513     -0.02318234
 Li              2.53605012      7.64547320      0.00071678      0.02286521     -0.04931828     -0.00127091      0.00543758       3       0      -1       0      32      0.00701390     -0.02865546      0.00080485
 Li              7.62893944      7.63207703     10.16191706     -0.01479772     -0.00921697      0.01850265      0.00254219       3      -1      -1      -1      32     -0.00489507     -0.01116082      0.01560802
 Li              2.54071563      2.53928930      5.04391574     -0.00492728     -0.00587770      0.05094811      0.00515222       3       0       0       0      32     -0.00753062     -0.00230568      0.03934539
 Li              7.63314045      2.52632854      5.08652425      0.01359698      0.03284093      0.02959568      0.00462527       3      -1       0      -1      32      0.00646377      0.01480802      0.01349287
 Li              2.55007695      7.62414256      5.09229538     -0.01186686      0.02665015      0.00519211      0.00296312       3       0      -1      -1      32     -0.00865423      0.01540558     -0.00287304
 Li              7.60749024      7.63842888      5.09441073      0.02037501     -0.02850157     -0.00121785      0.00350566       3      -1      -1      -1      32      0.01590088     -0.01946986     -0.00636577
 Cl              2.57246277      0.00152904     10.16644021     -0.06447342     -0.00054335      0.00252116      0.00645250      17       0       0      -1      32     -0.05625337      0.01140023     -0.00098497
 Cl              7.61189573     10.16626155     10.15562795      0.00329354     -0.01185817      0.05306597      0.00544744      17      -1      -1      -1      32     -0.00255130      0.00002912      0.04747519
 Cl              2.55699792      5.06807627      0.00410817     -0.06646212      0.06159902     -0.00223706      0.00906458      17       0       0       0      32     -0.05946511      0.05787764     -0.00143670
 Cl              7.62017055      5.06527780     10.14951445      0.02577904      0.08404727      0.08098466      0.01195283      17      -1       0      -1      32      0.02067080      0.07518247      0.07760933
 Cl              2.54654126      0.00725145      5.08184685     -0.01275732     -0.03099837      0.00871386      0.00346349      17       0       0       0      32     -0.01906181     -0.02413257      0.01258955
 Cl              7.61832954      0.01348209      5.09397023      0.03787140     -0.03900659     -0.01979098      0.00578571      17      -1       0      -1      32      0.04065024     -0.02635631     -0.01290769
 Cl              2.53479289      5.10515811      5.07949111      0.01080610     -0.04217363      0.00800297      0.00442655      17       0      -1       0      32      0.01322988     -0.03732784      0.01170636
 Cl              7.62215788      5.07045875      5.08051335     -0.00032617      0.03268361     -0.00607219      0.00332445      17      -1       0       0      32     -0.00260570      0.02426784     -0.00259487
 Cl              2.55386471      2.52481577      2.53536212     -0.04237051      0.02747390      0.03747990      0.00628873      17       0       0       0      32     -0.04114879      0.02442285      0.02967774
 Cl              7.63956836      2.53554272      2.53787323     -0.04776934     -0.00870234      0.03455355      0.00595952      17      -1       0       0      32     -0.04027158     -0.00599753      0.02471202
 Cl              2.53551597      7.62929473      2.55261063     -0.01774008     -0.00695323     -0.02626750      0.00324506      17       0      -1       0      32     -0.01769096     -0.00402854     -0.02434596
 Cl              7.61438020      7.63772288      2.56357145      0.02793295     -0.05580017     -0.07296561      0.00960098      17      -1      -1       0      32      0.03106972     -0.04936790     -0.06906871
 Cl              2.52392990      2.55870430      7.63022718      0.06616817     -0.04521722     -0.02318312      0.00834283      17       0       0      -1      32      0.05323864     -0.03959891     -0.02271933
 Cl              7.62724456      2.53639707      7.62687128     -0.00543801     -0.00319521     -0.00319203      0.00070690      17      -1       0      -1      32      0.00204895     -0.00138597      0.00115573
 Cl              2.55113528      7.63333874      7.64143245     -0.00644048     -0.01744152     -0.05709611      0.00600471      17       0      -1      -1      32     -0.01039178     -0.02171708     -0.05388520
 Cl              7.62997388      7.62130972      7.64479975     -0.02814838      0.01226725     -0.05567931      0.00635846      17      -1      -1      -1      32     -0.02133000      0.00843156     -0.04773820
 Cl             10.14001932     10.16214839      2.51789937      0.08050765     -0.00983186      0.04372212      0.00921400      17      -1      -1       0      32      0.07156223     -0.00459503      0.02890885
 Cl              5.07345490     10.14361398      2.55976416      0.03374837      0.07292126     -0.04556745      0.00923735      17       0      -1       0      32      0.03849689      0.07457661     -0.04815422
 Cl             10.15592782      5.08151322      2.53757174      0.03993350      0.01525915      0.03105173      0.00528369      17      -1       0       0      32      0.02902609      0.00993016      0.01760712
 Cl              5.07560390      5.07260623      2.52264917      0.02056994      0.04878474      0.08207651      0.00976710      17       0       0       0      32      0.02516101      0.04463344      0.06903846
 Cl             10.16731490      0.00039423      7.65250797      0.02826406     -0.01523330     -0.05111936      0.00603664      17      -1       0      -1      32      0.01775074     -0.00279537     -0.04467508
 Cl              5.10246234      0.01773832      7.61294858     -0.08124947     -0.05364886      0.02505246      0.01005351      17      -1       0      -1      32     -0.06649334     -0.03984823      0.02751347
 Cl             10.14652695      5.05709146      7.63485517      0.07219840      0.09984808     -0.03732191      0.01287446      17      -1       0      -1      32      0.05664508      0.08762645     -0.03359682
 Cl              5.09385299      5.06171792      7.64344490     -0.05196015      0.06826643     -0.08794397      0.01228589      17      -1       0      -1      32     -0.03875325      0.06080790     -0.07782328
 Cl             10.16242599      2.55168763      0.00290321      0.03111636     -0.04098806      0.01733398      0.00543021      17      -1       0       0      32      0.02821621     -0.02755794      0.00580093
 Cl              5.08442426      2.57108047      0.01013076     -0.00538519     -0.12327105     -0.00309898      0.01234275      17      -1       0       0      32      0.00095833     -0.11099734     -0.01047625
 Cl              0.01194381      7.60923952     10.15538004     -0.01415166      0.04104652      0.05613990      0.00709702      17       0      -1      -1      32     -0.01409302      0.02749701      0.04378021
 Cl              5.07460729      7.62478755     10.14119317      0.01819281      0.01496543      0.09356200      0.00964821      17       0      -1      -1      32      0.02481310      0.00907503      0.08263302
 Cl              0.01102051      2.53168571      5.10852846     -0.01037920      0.00253490     -0.10254722      0.01031023      17       0       0      -1      32     -0.00896696      0.00169559     -0.09289945
 Cl              5.10128371      2.53981175      5.10090077     -0.06747506      0.02904224     -0.06760683      0.00998350      17      -1       0      -1      32     -0.05986286      0.03128338     -0.05729479
 Cl             10.14374698      7.64074343      5.11173031      0.06185166     -0.04072309     -0.04875068      0.00886602      17      -1      -1      -1      32      0.05380974     -0.03641137     -0.04208307
 Cl              5.09192148      7.62691622      5.06785074     -0.03041719     -0.02290152      0.08959563      0.00973502      17      -1      -1       0      32     -0.01692626     -0.02818619      0.08876920
