64
Lattice="10.12203829 0.0 0.0 0.0 10.12203829 0.0 0.0 0.0 10.12203829" Properties=species:S:1:pos:R:3:REF_forces:R:3:REF_force_atom_sigma:R:1 REF_virial="2.041953386802068 0.0 0.0 0.0 2.0409219299721015 0.0 0.0 0.0 2.0409219299721015" REF_energy=-243.90044942 config_type=test pbc="T T T"
Li       0.00000000       0.00000000       0.00000000       0.00282068       0.00000000       0.00000000       0.00028207
Li       5.06101915       0.00000000       0.00000000       0.00325210       0.00000000       0.00000000       0.00032521
Li       0.00000000       5.06101915       0.00000000       0.00013707       0.00000000       0.00000000       0.00001371
Li       5.06101915       5.06101915       0.00000000       0.00013983       0.00000000       0.00000000       0.00001398
Li       0.00000000       0.00000000       5.06101915       0.00013707       0.00000000       0.00000000       0.00001371
Li       5.06101915       0.00000000       5.06101915       0.00013983       0.00000000       0.00000000       0.00001398
Li       0.00000000       5.06101915       5.06101915       0.00000023       0.00000000       0.00000000       0.00000002
Li       5.06101915       5.06101915       5.06101915       0.00000087       0.00000000       0.00000000       0.00000009
Li       0.00000000       2.53050957       2.53050957      -0.00002799       0.00049239       0.00049239       0.00006969
Li       5.06101915       2.53050957       2.53050957      -0.00001855      -0.00049126      -0.00049126       0.00006950
Li       0.00000000       7.59152872       2.53050957      -0.00002799      -0.00049239       0.00049239       0.00006969
Li       5.06101915       7.59152872       2.53050957      -0.00001855       0.00049126      -0.00049126       0.00006950
Li       0.00000000       2.53050957       7.59152872      -0.00002799       0.00049239      -0.00049239       0.00006969
Li       5.06101915       2.53050957       7.59152872      -0.00001855      -0.00049126       0.00049126       0.00006950
Li       0.00000000       7.59152872       7.59152872      -0.00002799      -0.00049239      -0.00049239       0.00006969
Li       5.06101915       7.59152872       7.59152872      -0.00001855       0.00049126       0.00049126       0.00006950
Li       2.53050957       0.00000000       2.53050957       0.00189896       0.00000000      -0.00000505       0.00018990
Li       7.59152872       0.00000000       2.53050957      -0.00127924       0.00000000      -0.00000176       0.00012792
Li       2.53050957       5.06101915       2.53050957       0.00022104       0.00000000      -0.00000112       0.00002210
Li       7.59152872       5.06101915       2.53050957      -0.00024958       0.00000000       0.00000090       0.00002496
Li       2.53050957       0.00000000       7.59152872       0.00189896       0.00000000       0.00000505       0.00018990
Li       7.59152872       0.00000000       7.59152872      -0.00127924       0.00000000       0.00000176       0.00012792
Li       2.53050957       5.06101915       7.59152872       0.00022104       0.00000000       0.00000112       0.00002210
Li       7.59152872       5.06101915       7.59152872      -0.00024958       0.00000000      -0.00000090       0.00002496
Li       2.53050957       2.53050957       0.00000000       0.00189896      -0.00000505       0.00000000       0.00018990
Li       7.59152872       2.53050957       0.00000000      -0.00127924      -0.00000176      -0.00000000       0.00012792
Li       2.53050957       7.59152872       0.00000000       0.00189896       0.00000505       0.00000000       0.00018990
Li       7.59152872       7.59152872       0.00000000      -0.00127924       0.00000176      -0.00000000       0.00012792
Li       2.53050957       2.53050957       5.06101915       0.00022104      -0.00000112       0.00000000       0.00002210
Li       7.59152872       2.53050957       5.06101915      -0.00024958       0.00000090      -0.00000000       0.00002496
Li       2.53050957       7.59152872       5.06101915       0.00022104       0.00000112       0.00000000       0.00002210
Li       7.59152872       7.59152872       5.06101915      -0.00024958      -0.00000090      -0.00000000       0.00002496
Cl       2.54050954       0.00000000       0.00000000      -0.03087959       0.00000000      -0.00000000       0.00308796
Cl       7.59152872       0.00000000       0.00000000       0.00180468       0.00000000       0.00000000       0.00018047
Cl       2.53050957       5.06101915       0.00000000      -0.00062715       0.00000000      -0.00000000       0.00006272
Cl       7.59152872       5.06101915       0.00000000       0.00104990       0.00000000       0.00000000       0.00010499
Cl       2.53050957       0.00000000       5.06101915      -0.00062715       0.00000000      -0.00000000       0.00006272
Cl       7.59152872       0.00000000       5.06101915       0.00104990       0.00000000       0.00000000       0.00010499
Cl       2.53050957       5.06101915       5.06101915      -0.00017165       0.00000000      -0.00000000       0.00001716
Cl       7.59152872       5.06101915       5.06101915       0.00023251       0.00000000       0.00000000       0.00002325
Cl       2.53050957       2.53050957       2.53050957      -0.00098933       0.00000129       0.00000129       0.00009893
Cl       7.59152872       2.53050957       2.53050957       0.00063886       0.00000684       0.00000684       0.00006389
Cl       2.53050957       7.59152872       2.53050957      -0.00098933      -0.00000129       0.00000129       0.00009893
Cl       7.59152872       7.59152872       2.53050957       0.00063886      -0.00000684       0.00000684       0.00006389
Cl       2.53050957       2.53050957       7.59152872      -0.00098933       0.00000129      -0.00000129       0.00009893
Cl       7.59152872       2.53050957       7.59152872       0.00063886       0.00000684      -0.00000684       0.00006389
Cl       2.53050957       7.59152872       7.59152872      -0.00098933      -0.00000129      -0.00000129       0.00009893
Cl       7.59152872       7.59152872       7.59152872       0.00063886      -0.00000684      -0.00000684       0.00006389
Cl       0.00000000       0.00000000       2.53050957       0.00258843       0.00000000      -0.00339054       0.00042656
Cl       5.06101915       0.00000000       2.53050957       0.00261211       0.00000000       0.00344426       0.00043227
Cl       0.00000000       5.06101915       2.53050957      -0.00000501       0.00000000      -0.00025813       0.00002582
Cl       5.06101915       5.06101915       2.53050957      -0.00000448       0.00000000       0.00027635       0.00002764
Cl       0.00000000       0.00000000       7.59152872       0.00258843       0.00000000       0.00339054       0.00042656
Cl       5.06101915       0.00000000       7.59152872       0.00261211       0.00000000      -0.00344426       0.00043227
Cl       0.00000000       5.06101915       7.59152872      -0.00000501       0.00000000       0.00025813       0.00002582
Cl       5.06101915       5.06101915       7.59152872      -0.00000448       0.00000000      -0.00027635       0.00002764
Cl       0.00000000       2.53050957       0.00000000       0.00258843      -0.00339054      -0.00000000       0.00042656
Cl       5.06101915       2.53050957       0.00000000       0.00261211       0.00344426       0.00000000       0.00043227
Cl       0.00000000       7.59152872       0.00000000       0.00258843       0.00339054       0.00000000       0.00042656
Cl       5.06101915       7.59152872       0.00000000       0.00261211      -0.00344426      -0.00000000       0.00043227
Cl       0.00000000       2.53050957       5.06101915      -0.00000501      -0.00025813      -0.00000000       0.00002582
Cl       5.06101915       2.53050957       5.06101915      -0.00000448       0.00027635       0.00000000       0.00002764
Cl       0.00000000       7.59152872       5.06101915      -0.00000501       0.00025813       0.00000000       0.00002582
Cl       5.06101915       7.59152872       5.06101915      -0.00000448      -0.00027635      -0.00000000       0.00002764
64
Lattice="10.16848936 0.0 0.0 0.0 10.16848936 0.0 0.0 0.0 10.16848936" Properties=species:S:1:pos:R:3:REF_forces:R:3:REF_force_atom_sigma:R:1 REF_virial="-1.084103851938729 -0.00016506261314834901 -0.0013246942423553918 -0.00016506261314834901 -1.0785477983125078 -0.0003388859541841486 -0.0013246942423553918 -0.0003388859541841486 -1.067081961086045" REF_energy=-243.87972833 config_type=test pbc="T T T"
Li       0.02268956       0.00001546      10.14560619      -0.05394328       0.01938868       0.02492437       0.00625062
Li       5.06951145       0.00713838       0.01523504       0.05809528       0.01507832      -0.02169893       0.00638221
Li       0.01239478       5.10696576      10.16249239      -0.01702011      -0.05429044      -0.01623290       0.00591662
Li       5.08343862       5.09151017      10.16642221       0.00627029      -0.01994752       0.00958753       0.00230031
Li       0.01212419      10.13738720       5.08124274      -0.00842580       0.04808388       0.00909659       0.00496568
Li       5.11089812       0.01132993       5.07732096      -0.03819664      -0.01161747       0.01910705       0.00442609
Li       0.00039220       5.07420462       5.09297575      -0.02939056      -0.00087008       0.01564825       0.00333081
Li       5.06309168       5.09012817       5.10165222       0.04416608      -0.00905343      -0.02470902       0.00514115
Li      10.14614349       2.53285956       2.52153430       0.03267907      -0.01166692       0.01954380       0.00398246
Li       5.10850792       2.56903111       2.56181169      -0.02609880      -0.01906261      -0.03583469       0.00482561
Li       0.00518623       7.62244636       2.54274018      -0.02904304       0.01499540       0.01029489       0.00342687
Li       5.07113211       7.62892673       2.55226134       0.02323498      -0.03162131      -0.02125147       0.00446251
Li      10.16716349       2.54507252       7.62459028      -0.02149467      -0.00761043       0.01494003       0.00272607
Li       5.08415062       2.52271344       7.62204246       0.01449291       0.02931142       0.03416289       0.00472896
Li       0.01464547       7.63617453       7.64201572      -0.02099321      -0.01745091      -0.01845580       0.00329525
Li       5.08946030       7.60743563       7.65429772       0.00225704       0.01664306      -0.03408953       0.00380024
Li       2.56083165      10.16315365       2.53295545      -0.03831426       0.01014303       0.02368974       0.00461743
Li       7.60317473      10.14964857       2.56364903       0.02960034       0.00960815      -0.04737194       0.00566798
Li       2.52765695       5.08166717       2.53720008       0.02660983      -0.00956814      -0.02344753       0.00367344
Li       7.64661777       5.06812762       2.54434934      -0.04708221       0.02614830      -0.01446339       0.00557643
Li       2.56203641       0.02776974       7.61380070      -0.02261235      -0.00976752      -0.00451099       0.00250414
Li       7.59465842       0.00246301       7.62414693       0.05161088       0.01938404       0.02880373       0.00622019
Li       2.54666013       5.08682646       7.62207256      -0.01834144      -0.01315365       0.03135579       0.00386343
Li       7.61081350       5.09744897       7.61114011       0.02680374      -0.04561208       0.02139627       0.00570675
Li       2.52873359       2.52463295       0.00392656       0.02161863       0.04975952      -0.01356367       0.00559227
Li       7.61674631       2.54315841       0.00966057       0.00298178      -0.00608011      -0.04208699       0.00426283
Li       2.53605012       7.64547320       0.00071678       0.02286521      -0.04931828      -0.00127091       0.00543758
Li       7.62893944       7.63207703      10.16191706      -0.01479772      -0.00921697       0.01850265       0.00254219
Li       2.54071563       2.53928930       5.04391574      -0.00492728      -0.00587770       0.05094811       0.00515222
Li       7.63314045       2.52632854       5.08652425       0.01359698       0.03284093       0.02959568       0.00462527
Li       2.55007695       7.62414256       5.09229538      -0.01186686       0.02665015       0.00519211       0.00296312
Li       7.60749024       7.63842888       5.09441073       0.02037501      -0.02850157      -0.00121785       0.00350566
Cl       2.57246277       0.00152904      10.16644021      -0.06447342      -0.00054335       0.00252116       0.00645250
Cl       7.61189573      10.16626155      10.15562795       0.00329354      -0.01185817       0.05306597       0.00544744
Cl       2.55699792       5.06807627       0.00410817      -0.06646212       0.06159902      -0.00223706       0.00906458
Cl       7.62017055       5.06527780      10.14951445       0.02577904       0.08404727       0.08098466       0.01195283
Cl       2.54654126       0.00725145       5.08184685      -0.01275732      -0.03099837       0.00871386       0.00346349
Cl       7.61832954       0.01348209       5.09397023       0.03787140      -0.03900659      -0.01979098       0.00578571
Cl       2.53479289       5.10515811       5.07949111       0.01080610      -0.04217363       0.00800297       0.00442655
Cl       7.62215788       5.07045875       5.08051335      -0.00032617       0.03268361      -0.00607219       0.00332445
Cl       2.55386471       2.52481577       2.53536212      -0.04237051       0.02747390       0.03747990       0.00628873
Cl       7.63956836       2.53554272       2.53787323      -0.04776934      -0.00870234       0.03455355       0.00595952
Cl       2.53551597       7.62929473       2.55261063      -0.01774008      -0.00695323      -0.02626750       0.00324506
Cl       7.61438020       7.63772288       2.56357145       0.02793295      -0.05580017      -0.07296561       0.00960098
Cl       2.52392990       2.55870430       7.63022718       0.06616817      -0.04521722      -0.02318312       0.00834283
Cl       7.62724456       2.53639707       7.62687128      -0.00543801      -0.00319521      -0.00319203       0.00070690
Cl       2.55113528       7.63333874       7.64143245      -0.00644048      -0.01744152      -0.05709611       0.00600471
Cl       7.62997388       7.62130972       7.64479975      -0.02814838       0.01226725      -0.05567931       0.00635846
Cl      10.14001932      10.16214839       2.51789937       0.08050765      -0.00983186       0.04372212       0.00921400
Cl       5.07345490      10.14361398       2.55976416       0.03374837       0.07292126      -0.04556745       0.00923735
Cl      10.15592782       5.08151322       2.53757174       0.03993350       0.01525915       0.03105173       0.00528369
Cl       5.07560390       5.07260623       2.52264917       0.02056994       0.04878474       0.08207651       0.00976710
Cl      10.16731490       0.00039423       7.65250797       0.02826406      -0.01523330      -0.05111936       0.00603664
Cl       5.10246234       0.01773832       7.61294858      -0.08124947      -0.05364886       0.02505246       0.01005351
Cl      10.14652695       5.05709146       7.63485517       0.07219840       0.09984808      -0.03732191       0.01287446
Cl       5.09385299       5.06171792       7.64344490      -0.05196015       0.06826643      -0.08794397       0.01228589
Cl      10.16242599       2.55168763       0.00290321       0.03111636      -0.04098806       0.01733398       0.00543021
Cl       5.08442426       2.57108047       0.01013076      -0.00538519      -0.12327105      -0.00309898       0.01234275
Cl       0.01194381       7.60923952      10.15538004      -0.01415166       0.04104652       0.05613990       0.00709702
Cl       5.07460729       7.62478755      10.14119317       0.01819281       0.01496543       0.09356200       0.00964821
Cl       0.01102051       2.53168571       5.10852846      -0.01037920       0.00253490      -0.10254722       0.01031023
Cl       5.10128371       2.53981175       5.10090077      -0.06747506       0.02904224      -0.06760683       0.00998350
Cl      10.14374698       7.64074343       5.11173031       0.06185166      -0.04072309      -0.04875068       0.00886602
Cl       5.09192148       7.62691622       5.06785074      -0.03041719      -0.02290152       0.08959563       0.00973502
