phonopy:
  version: "2.23.1"
  frequency_unit_conversion_factor: 15.633302
  symmetry_tolerance: 1.00000e-04

space_group:
  type: "Fm-3m"
  number: 225
  Hall_symbol: "-F 4 2 3"

primitive_matrix:
- [ -0.000000000000000,  0.500000000000000,  0.500000000000000 ]
- [  0.500000000000000,  0.000000000000000,  0.500000000000000 ]
- [  0.500000000000000,  0.500000000000000,  0.000000000000000 ]

supercell_matrix:
- [   2,   0,   0 ]
- [   0,   2,   0 ]
- [   0,   0,   2 ]

primitive_cell:
  lattice:
  - [     0.000000000000000,     2.542122339049762,     2.542122339049762 ] # a
  - [     2.542122339049762,     0.000000000000000,     2.542122339049762 ] # b
  - [     2.542122339049762,     2.542122339049762,     0.000000000000000 ] # c
  points:
  - symbol: Li # 1
    coordinates: [  0.000000000000000,  0.000000000000000,  0.000000000000000 ]
    mass: 6.941000
  - symbol: Cl # 2
    coordinates: [  0.500000000000000,  0.500000000000000,  0.500000000000000 ]
    mass: 35.453000
  reciprocal_lattice: # without 2pi
  - [    -0.196686049416055,     0.196686049416055,     0.196686049416055 ] # a*
  - [     0.196686049416055,    -0.196686049416055,     0.196686049416055 ] # b*
  - [     0.196686049416055,     0.196686049416055,    -0.196686049416055 ] # c*

unit_cell:
  lattice:
  - [     5.084244678099525,     0.000000000000000,     0.000000000000000 ] # a
  - [     0.000000000000001,     5.084244678099525,     0.000000000000000 ] # b
  - [     0.000000000000000,     0.000000000000000,     5.084244678099525 ] # c
  points:
  - symbol: Li # 1
    coordinates: [  0.000000000000000,  0.000000000000000,  0.000000000000000 ]
    mass: 6.941000
    reduced_to: 1
  - symbol: Li # 2
    coordinates: [ -0.000000000000000,  0.500000000000000,  0.500000000000000 ]
    mass: 6.941000
    reduced_to: 1
  - symbol: Li # 3
    coordinates: [  0.500000000000000,  0.000000000000000,  0.500000000000000 ]
    mass: 6.941000
    reduced_to: 1
  - symbol: Li # 4
    coordinates: [  0.500000000000000,  0.500000000000000, -0.000000000000000 ]
    mass: 6.941000
    reduced_to: 1
  - symbol: Cl # 5
    coordinates: [  0.500000000000000,  0.000000000000000, -0.000000000000000 ]
    mass: 35.453000
    reduced_to: 5
  - symbol: Cl # 6
    coordinates: [  0.500000000000000,  0.500000000000000,  0.500000000000000 ]
    mass: 35.453000
    reduced_to: 5
  - symbol: Cl # 7
    coordinates: [  0.000000000000000,  0.000000000000000,  0.500000000000000 ]
    mass: 35.453000
    reduced_to: 5
  - symbol: Cl # 8
    coordinates: [ -0.000000000000000,  0.500000000000000, -0.000000000000000 ]
    mass: 35.453000
    reduced_to: 5

supercell:
  lattice:
  - [    10.168489356199050,     0.000000000000000,     0.000000000000001 ] # a
  - [     0.000000000000002,    10.168489356199050,     0.000000000000001 ] # b
  - [     0.000000000000000,     0.000000000000000,    10.168489356199050 ] # c
  points:
  - symbol: Li # 1
    coordinates: [  0.000000000000000,  0.000000000000000,  0.000000000000000 ]
    mass: 6.941000
    reduced_to: 1
  - symbol: Li # 2
    coordinates: [  0.500000000000000,  0.000000000000000,  0.000000000000000 ]
    mass: 6.941000
    reduced_to: 1
  - symbol: Li # 3
    coordinates: [  0.000000000000000,  0.500000000000000,  0.000000000000000 ]
    mass: 6.941000
    reduced_to: 1
  - symbol: Li # 4
    coordinates: [  0.500000000000000,  0.500000000000000,  0.000000000000000 ]
    mass: 6.941000
    reduced_to: 1
  - symbol: Li # 5
    coordinates: [  0.000000000000000,  0.000000000000000,  0.500000000000000 ]
    mass: 6.941000
    reduced_to: 1
  - symbol: Li # 6
    coordinates: [  0.500000000000000,  0.000000000000000,  0.500000000000000 ]
    mass: 6.941000
    reduced_to: 1
  - symbol: Li # 7
    coordinates: [  0.000000000000000,  0.500000000000000,  0.500000000000000 ]
    mass: 6.941000
    reduced_to: 1
  - symbol: Li # 8
    coordinates: [  0.500000000000000,  0.500000000000000,  0.500000000000000 ]
    mass: 6.941000
    reduced_to: 1
  - symbol: Li # 9
    coordinates: [  1.000000000000000,  0.250000000000000,  0.250000000000000 ]
    mass: 6.941000
    reduced_to: 1
  - symbol: Li # 10
    coordinates: [  0.500000000000000,  0.250000000000000,  0.250000000000000 ]
    mass: 6.941000
    reduced_to: 1
  - symbol: Li # 11
    coordinates: [  1.000000000000000,  0.750000000000000,  0.250000000000000 ]
    mass: 6.941000
    reduced_to: 1
  - symbol: Li # 12
    coordinates: [  0.500000000000000,  0.750000000000000,  0.250000000000000 ]
    mass: 6.941000
    reduced_to: 1
  - symbol: Li # 13
    coordinates: [  1.000000000000000,  0.250000000000000,  0.750000000000000 ]
    mass: 6.941000
    reduced_to: 1
  - symbol: Li # 14
    coordinates: [  0.500000000000000,  0.250000000000000,  0.750000000000000 ]
    mass: 6.941000
    reduced_to: 1
  - symbol: Li # 15
    coordinates: [  1.000000000000000,  0.750000000000000,  0.750000000000000 ]
    mass: 6.941000
    reduced_to: 1
  - symbol: Li # 16
    coordinates: [  0.500000000000000,  0.750000000000000,  0.750000000000000 ]
    mass: 6.941000
    reduced_to: 1
  - symbol: Li # 17
    coordinates: [  0.250000000000000,  0.000000000000000,  0.250000000000000 ]
    mass: 6.941000
    reduced_to: 1
  - symbol: Li # 18
    coordinates: [  0.750000000000000,  0.000000000000000,  0.250000000000000 ]
    mass: 6.941000
    reduced_to: 1
  - symbol: Li # 19
    coordinates: [  0.250000000000000,  0.500000000000000,  0.250000000000000 ]
    mass: 6.941000
    reduced_to: 1
  - symbol: Li # 20
    coordinates: [  0.750000000000000,  0.500000000000000,  0.250000000000000 ]
    mass: 6.941000
    reduced_to: 1
  - symbol: Li # 21
    coordinates: [  0.250000000000000,  0.000000000000000,  0.750000000000000 ]
    mass: 6.941000
    reduced_to: 1
  - symbol: Li # 22
    coordinates: [  0.750000000000000,  0.000000000000000,  0.750000000000000 ]
    mass: 6.941000
    reduced_to: 1
  - symbol: Li # 23
    coordinates: [  0.250000000000000,  0.500000000000000,  0.750000000000000 ]
    mass: 6.941000
    reduced_to: 1
  - symbol: Li # 24
    coordinates: [  0.750000000000000,  0.500000000000000,  0.750000000000000 ]
    mass: 6.941000
    reduced_to: 1
  - symbol: Li # 25
    coordinates: [  0.250000000000000,  0.250000000000000,  1.000000000000000 ]
    mass: 6.941000
    reduced_to: 1
  - symbol: Li # 26
    coordinates: [  0.750000000000000,  0.250000000000000,  1.000000000000000 ]
    mass: 6.941000
    reduced_to: 1
  - symbol: Li # 27
    coordinates: [  0.250000000000000,  0.750000000000000,  1.000000000000000 ]
    mass: 6.941000
    reduced_to: 1
  - symbol: Li # 28
    coordinates: [  0.750000000000000,  0.750000000000000,  1.000000000000000 ]
    mass: 6.941000
    reduced_to: 1
  - symbol: Li # 29
    coordinates: [  0.250000000000000,  0.250000000000000,  0.500000000000000 ]
    mass: 6.941000
    reduced_to: 1
  - symbol: Li # 30
    coordinates: [  0.750000000000000,  0.250000000000000,  0.500000000000000 ]
    mass: 6.941000
    reduced_to: 1
  - symbol: Li # 31
    coordinates: [  0.250000000000000,  0.750000000000000,  0.500000000000000 ]
    mass: 6.941000
    reduced_to: 1
  - symbol: Li # 32
    coordinates: [  0.750000000000000,  0.750000000000000,  0.500000000000000 ]
    mass: 6.941000
    reduced_to: 1
  - symbol: Cl # 33
    coordinates: [  0.250000000000000,  0.000000000000000,  1.000000000000000 ]
    mass: 35.453000
    reduced_to: 33
  - symbol: Cl # 34
    coordinates: [  0.750000000000000,  0.000000000000000,  1.000000000000000 ]
    mass: 35.453000
    reduced_to: 33
  - symbol: Cl # 35
    coordinates: [  0.250000000000000,  0.500000000000000,  1.000000000000000 ]
    mass: 35.453000
    reduced_to: 33
  - symbol: Cl # 36
    coordinates: [  0.750000000000000,  0.500000000000000,  1.000000000000000 ]
    mass: 35.453000
    reduced_to: 33
  - symbol: Cl # 37
    coordinates: [  0.250000000000000,  0.000000000000000,  0.500000000000000 ]
    mass: 35.453000
    reduced_to: 33
  - symbol: Cl # 38
    coordinates: [  0.750000000000000,  0.000000000000000,  0.500000000000000 ]
    mass: 35.453000
    reduced_to: 33
  - symbol: Cl # 39
    coordinates: [  0.250000000000000,  0.500000000000000,  0.500000000000000 ]
    mass: 35.453000
    reduced_to: 33
  - symbol: Cl # 40
    coordinates: [  0.750000000000000,  0.500000000000000,  0.500000000000000 ]
    mass: 35.453000
    reduced_to: 33
  - symbol: Cl # 41
    coordinates: [  0.250000000000000,  0.250000000000000,  0.250000000000000 ]
    mass: 35.453000
    reduced_to: 33
  - symbol: Cl # 42
    coordinates: [  0.750000000000000,  0.250000000000000,  0.250000000000000 ]
    mass: 35.453000
    reduced_to: 33
  - symbol: Cl # 43
    coordinates: [  0.250000000000000,  0.750000000000000,  0.250000000000000 ]
    mass: 35.453000
    reduced_to: 33
  - symbol: Cl # 44
    coordinates: [  0.750000000000000,  0.750000000000000,  0.250000000000000 ]
    mass: 35.453000
    reduced_to: 33
  - symbol: Cl # 45
    coordinates: [  0.250000000000000,  0.250000000000000,  0.750000000000000 ]
    mass: 35.453000
    reduced_to: 33
  - symbol: Cl # 46
    coordinates: [  0.750000000000000,  0.250000000000000,  0.750000000000000 ]
    mass: 35.453000
    reduced_to: 33
  - symbol: Cl # 47
    coordinates: [  0.250000000000000,  0.750000000000000,  0.750000000000000 ]
    mass: 35.453000
    reduced_to: 33
  - symbol: Cl # 48
    coordinates: [  0.750000000000000,  0.750000000000000,  0.750000000000000 ]
    mass: 35.453000
    reduced_to: 33
  - symbol: Cl # 49
    coordinates: [  0.000000000000000,  0.000000000000000,  0.250000000000000 ]
    mass: 35.453000
    reduced_to: 33
  - symbol: Cl # 50
    coordinates: [  0.500000000000000,  0.000000000000000,  0.250000000000000 ]
    mass: 35.453000
    reduced_to: 33
  - symbol: Cl # 51
    coordinates: [  0.000000000000000,  0.500000000000000,  0.250000000000000 ]
    mass: 35.453000
    reduced_to: 33
  - symbol: Cl # 52
    coordinates: [  0.500000000000000,  0.500000000000000,  0.250000000000000 ]
    mass: 35.453000
    reduced_to: 33
  - symbol: Cl # 53
    coordinates: [  0.000000000000000,  0.000000000000000,  0.750000000000000 ]
    mass: 35.453000
    reduced_to: 33
  - symbol: Cl # 54
    coordinates: [  0.500000000000000,  0.000000000000000,  0.750000000000000 ]
    mass: 35.453000
    reduced_to: 33
  - symbol: Cl # 55
    coordinates: [  0.000000000000000,  0.500000000000000,  0.750000000000000 ]
    mass: 35.453000
    reduced_to: 33
  - symbol: Cl # 56
    coordinates: [  0.500000000000000,  0.500000000000000,  0.750000000000000 ]
    mass: 35.453000
    reduced_to: 33
  - symbol: Cl # 57
    coordinates: [  1.000000000000000,  0.250000000000000,  1.000000000000000 ]
    mass: 35.453000
    reduced_to: 33
  - symbol: Cl # 58
    coordinates: [  0.500000000000000,  0.250000000000000,  1.000000000000000 ]
    mass: 35.453000
    reduced_to: 33
  - symbol: Cl # 59
    coordinates: [  1.000000000000000,  0.750000000000000,  1.000000000000000 ]
    mass: 35.453000
    reduced_to: 33
  - symbol: Cl # 60
    coordinates: [  0.500000000000000,  0.750000000000000,  1.000000000000000 ]
    mass: 35.453000
    reduced_to: 33
  - symbol: Cl # 61
    coordinates: [  1.000000000000000,  0.250000000000000,  0.500000000000000 ]
    mass: 35.453000
    reduced_to: 33
  - symbol: Cl # 62
    coordinates: [  0.500000000000000,  0.250000000000000,  0.500000000000000 ]
    mass: 35.453000
    reduced_to: 33
  - symbol: Cl # 63
    coordinates: [  1.000000000000000,  0.750000000000000,  0.500000000000000 ]
    mass: 35.453000
    reduced_to: 33
  - symbol: Cl # 64
    coordinates: [  0.500000000000000,  0.750000000000000,  0.500000000000000 ]
    mass: 35.453000
    reduced_to: 33

displacements:
- atom:    1
  displacement:
    [   0.0100000000000000,  0.0000000000000000,  0.0000000000000000 ]
  forces:
  - [  -0.0153157480557429, -0.0000000000000316,  0.0000000000000969 ]
  - [  -0.0000000000000578, -0.0000000000000613,  0.0000000000000223 ]
  - [  -0.0000000000000637,  0.0000000000000460,  0.0000000000000298 ]
  - [   0.0000000000001876,  0.0000000000001429,  0.0000000000001613 ]
  - [   0.0000000000000488, -0.0000000000000388, -0.0000000000002002 ]
  - [  -0.0000000000000830, -0.0000000000000151, -0.0000000000000785 ]
  - [   0.0000000000000309,  0.0000000000001347, -0.0000000000000282 ]
  - [   0.0000000000001399,  0.0000000000001204,  0.0000000000000945 ]
  - [  -0.0012335966302859, -0.0000043478652538, -0.0000043478651248 ]
  - [  -0.0000000000001554, -0.0000000000000009, -0.0000000000001227 ]
  - [  -0.0012335966300883,  0.0000043478651258, -0.0000043478650824 ]
  - [  -0.0000000000001137, -0.0000000000001923, -0.0000000000001057 ]
  - [  -0.0012335966302451, -0.0000043478650309,  0.0000043478650526 ]
  - [   0.0000000000000780, -0.0000000000000003, -0.0000000000000139 ]
  - [  -0.0012335966302197,  0.0000043478650958,  0.0000043478649869 ]
  - [   0.0000000000001125, -0.0000000000000565, -0.0000000000000866 ]
  - [   0.0009781228000418,  0.0000000000000076,  0.0022204712480201 ]
  - [   0.0009765658697830, -0.0000000000001140, -0.0022015194397375 ]
  - [  -0.0000000000000165,  0.0000000000000378, -0.0000000000000115 ]
  - [   0.0000000000000467,  0.0000000000001280, -0.0000000000001220 ]
  - [   0.0009781228002298,  0.0000000000001524, -0.0022204712481716 ]
  - [   0.0009765658695569,  0.0000000000002611,  0.0022015194398208 ]
  - [   0.0000000000000015,  0.0000000000001398,  0.0000000000000098 ]
  - [  -0.0000000000000599, -0.0000000000000013, -0.0000000000000263 ]
  - [   0.0009781228001237,  0.0022204712478778, -0.0000000000000207 ]
  - [   0.0009765658694769, -0.0022015194398136,  0.0000000000000106 ]
  - [   0.0009781228003191, -0.0022204712479739,  0.0000000000000908 ]
  - [   0.0009765658695347,  0.0022015194396847,  0.0000000000002971 ]
  - [  -0.0000000000000849, -0.0000000000001383, -0.0000000000000235 ]
  - [  -0.0000000000000893, -0.0000000000000209,  0.0000000000001610 ]
  - [   0.0000000000001218,  0.0000000000000236,  0.0000000000001079 ]
  - [   0.0000000000000120, -0.0000000000001204, -0.0000000000000331 ]
  - [   0.0027552271662863,  0.0000000000000156,  0.0000000000000057 ]
  - [   0.0022596787842339, -0.0000000000000056, -0.0000000000000981 ]
  - [   0.0000000000000714,  0.0000000000001666, -0.0000000000000208 ]
  - [   0.0000000000000161, -0.0000000000000677, -0.0000000000001298 ]
  - [   0.0000000000000479, -0.0000000000001416, -0.0000000000001512 ]
  - [   0.0000000000000476,  0.0000000000000719,  0.0000000000002418 ]
  - [   0.0000000000000556,  0.0000000000000766,  0.0000000000000891 ]
  - [   0.0000000000001510,  0.0000000000000917,  0.0000000000000482 ]
  - [   0.0000406133538777, -0.0005404204949601, -0.0005404204948468 ]
  - [   0.0000264795503593,  0.0005502638505906,  0.0005502638506561 ]
  - [   0.0000406133540822,  0.0005404204948673, -0.0005404204947785 ]
  - [   0.0000264795503610, -0.0005502638505463,  0.0005502638505494 ]
  - [   0.0000406133539207, -0.0005404204948814,  0.0005404204947415 ]
  - [   0.0000264795502095,  0.0005502638507197, -0.0005502638504431 ]
  - [   0.0000406133540504,  0.0005404204946774,  0.0005404204949196 ]
  - [   0.0000264795503566, -0.0005502638505266, -0.0005502638505514 ]
  - [   0.0017870255823898, -0.0000000000000072, -0.0000014115884405 ]
  - [  -0.0000000000000008, -0.0000000000000227, -0.0000000000000212 ]
  - [  -0.0000000000000213, -0.0000000000000169,  0.0000000000000024 ]
  - [   0.0000000000000869,  0.0000000000000784,  0.0000000000000372 ]
  - [   0.0017870255824637,  0.0000000000001213,  0.0000014115883768 ]
  - [   0.0000000000000008,  0.0000000000000188, -0.0000000000000304 ]
  - [   0.0000000000000095, -0.0000000000000445, -0.0000000000000044 ]
  - [  -0.0000000000000206, -0.0000000000000163,  0.0000000000000038 ]
  - [   0.0017870255822682, -0.0000014115883471, -0.0000000000000576 ]
  - [  -0.0000000000000300,  0.0000000000000251, -0.0000000000000595 ]
  - [   0.0017870255824243,  0.0000014115882269,  0.0000000000001444 ]
  - [  -0.0000000000000689, -0.0000000000001032, -0.0000000000000558 ]
  - [  -0.0000000000000897, -0.0000000000000396, -0.0000000000000575 ]
  - [  -0.0000000000001283, -0.0000000000000605,  0.0000000000001715 ]
  - [   0.0000000000001252, -0.0000000000000318, -0.0000000000001310 ]
  - [  -0.0000000000000763, -0.0000000000000437, -0.0000000000000838 ]
- atom:   33
  displacement:
    [   0.0100000000000000,  0.0000000000000000,  0.0000000000000000 ]
  forces:
  - [   0.0022596787841235,  0.0000000000000135, -0.0000000000000902 ]
  - [   0.0027552271661663, -0.0000000000000613,  0.0000000000000222 ]
  - [  -0.0000000000000638,  0.0000000000000460,  0.0000000000000297 ]
  - [   0.0000000000001876,  0.0000000000001430,  0.0000000000001614 ]
  - [   0.0000000000000488, -0.0000000000000388, -0.0000000000002002 ]
  - [  -0.0000000000000830, -0.0000000000000152, -0.0000000000000784 ]
  - [   0.0000000000000311,  0.0000000000001345, -0.0000000000000282 ]
  - [   0.0000000000001397,  0.0000000000001202,  0.0000000000000944 ]
  - [   0.0000264795502458,  0.0005502638503522,  0.0005502638504813 ]
  - [   0.0000406133538676, -0.0005404204948063, -0.0005404204949282 ]
  - [   0.0000264795504312, -0.0005502638505324,  0.0005502638505759 ]
  - [   0.0000406133539093,  0.0005404204946132, -0.0005404204949110 ]
  - [   0.0000264795502017,  0.0005502638506770, -0.0005502638506555 ]
  - [   0.0000406133541680, -0.0005404204947387,  0.0005404204947244 ]
  - [   0.0000264795503117, -0.0005502638505104, -0.0005502638506188 ]
  - [   0.0000406133541765,  0.0005404204947080,  0.0005404204946778 ]
  - [   0.0017870255821592,  0.0000000000000077, -0.0000014115883664 ]
  - [   0.0000000000002950, -0.0000000000001141, -0.0000000000000287 ]
  - [  -0.0000000000000166,  0.0000000000000378, -0.0000000000000115 ]
  - [   0.0000000000000466,  0.0000000000001280, -0.0000000000001219 ]
  - [   0.0017870255823473,  0.0000000000001524,  0.0000014115882148 ]
  - [  -0.0000000000000360,  0.0000000000002612,  0.0000000000000075 ]
  - [   0.0000000000000015,  0.0000000000001398,  0.0000000000000096 ]
  - [  -0.0000000000000600, -0.0000000000000012, -0.0000000000000262 ]
  - [   0.0017870255822909, -0.0000014115884586, -0.0000000000000206 ]
  - [  -0.0000000000000114, -0.0000000000001050,  0.0000000000000106 ]
  - [   0.0017870255824366,  0.0000014115884124,  0.0000000000000908 ]
  - [   0.0000000000000164, -0.0000000000000540,  0.0000000000002970 ]
  - [  -0.0000000000000848, -0.0000000000001384, -0.0000000000000239 ]
  - [  -0.0000000000000893, -0.0000000000000208,  0.0000000000001608 ]
  - [   0.0000000000001217,  0.0000000000000238,  0.0000000000001079 ]
  - [   0.0000000000000121, -0.0000000000001204, -0.0000000000000333 ]
  - [  -0.0288877861036492, -0.0000000000000617,  0.0000000000001959 ]
  - [   0.0000000000001462, -0.0000000000000055, -0.0000000000000981 ]
  - [   0.0000000000000714,  0.0000000000001666, -0.0000000000000209 ]
  - [   0.0000000000000161, -0.0000000000000677, -0.0000000000001298 ]
  - [   0.0000000000000480, -0.0000000000001417, -0.0000000000001511 ]
  - [   0.0000000000000477,  0.0000000000000718,  0.0000000000002417 ]
  - [   0.0000000000000556,  0.0000000000000768,  0.0000000000000891 ]
  - [   0.0000000000001510,  0.0000000000000917,  0.0000000000000482 ]
  - [  -0.0007822489861221, -0.0000063526144432, -0.0000063526143300 ]
  - [  -0.0000000000000851,  0.0000000000001076,  0.0000000000001728 ]
  - [  -0.0007822489859177,  0.0000063526143299, -0.0000063526142409 ]
  - [  -0.0000000000000118,  0.0000000000000084, -0.0000000000000052 ]
  - [  -0.0007822489861508, -0.0000063526144161,  0.0000063526142762 ]
  - [  -0.0000000000000786,  0.0000000000000807,  0.0000000000001959 ]
  - [  -0.0007822489860451,  0.0000063526142355,  0.0000063526144777 ]
  - [  -0.0000000000000697, -0.0000000000000256, -0.0000000000000503 ]
  - [   0.0024299961967182, -0.0000000000000072, -0.0031996835101032 ]
  - [   0.0024663543409158, -0.0000000000000227,  0.0032614579820729 ]
  - [  -0.0000000000000212, -0.0000000000000170,  0.0000000000000024 ]
  - [   0.0000000000000869,  0.0000000000000784,  0.0000000000000372 ]
  - [   0.0024299961967921,  0.0000000000001215,  0.0031996835100394 ]
  - [   0.0024663543409072,  0.0000000000000187, -0.0032614579821144 ]
  - [   0.0000000000000096, -0.0000000000000445, -0.0000000000000043 ]
  - [  -0.0000000000000206, -0.0000000000000163,  0.0000000000000038 ]
  - [   0.0024299961965967, -0.0031996835100098, -0.0000000000000576 ]
  - [   0.0024663543408866,  0.0032614579821191, -0.0000000000000595 ]
  - [   0.0024299961967530,  0.0031996835098898,  0.0000000000001445 ]
  - [   0.0024663543408476, -0.0032614579821972, -0.0000000000000557 ]
  - [  -0.0000000000000897, -0.0000000000000396, -0.0000000000000574 ]
  - [  -0.0000000000001284, -0.0000000000000604,  0.0000000000001716 ]
  - [   0.0000000000001253, -0.0000000000000318, -0.0000000000001310 ]
  - [  -0.0000000000000762, -0.0000000000000438, -0.0000000000000836 ]
