phonopy:
  version: "2.27.0"
  frequency_unit_conversion_factor: 15.633302
  symmetry_tolerance: 1.00000e-03

space_group:
  type: "Fd-3m"
  number: 227
  Hall_symbol: "F 4d 2 3 -1d"

primitive_matrix:
- [  1.000000000000000, -0.000000000000000,  0.000000000000000 ]
- [ -0.000000000000000,  1.000000000000000, -0.000000000000000 ]
- [  0.000000000000000,  0.000000000000000,  1.000000000000000 ]

supercell_matrix:
- [  -2,   3,   3 ]
- [   2,  -3,   3 ]
- [   2,   3,  -3 ]

primitive_cell:
  lattice:
  - [     0.000000004184933,     2.748236761632568,     2.748236765380428 ] # a
  - [     2.748236763535134,     0.000000003520792,     2.748236766044567 ] # b
  - [     2.748236763509155,     2.748236762270724,     0.000000003546765 ] # c
  points:
  - symbol: Si # 1
    coordinates: [  0.999999999311446,  0.000000000015968,  0.999999999950894 ]
    mass: 28.085500
  - symbol: Si # 2
    coordinates: [  0.249999999787064,  0.250000000695044,  0.250000000504733 ]
    mass: 28.085500
  reciprocal_lattice: # without 2pi
  - [    -0.181934834646952,     0.181934834494139,     0.181934834247748 ] # a*
  - [     0.181934834368188,    -0.181934834684971,     0.181934834159815 ] # b*
  - [     0.181934834371627,     0.181934834409645,    -0.181934834438580 ] # c*

unit_cell:
  lattice:
  - [     0.000000004184932,     2.748236761632567,     2.748236765380429 ] # a
  - [     2.748236763535134,     0.000000003520792,     2.748236766044569 ] # b
  - [     2.748236763509156,     2.748236762270723,     0.000000003546765 ] # c
  points:
  - symbol: Si # 1
    coordinates: [ -0.000000000688554,  0.000000000015967, -0.000000000049105 ]
    mass: 28.085500
    reduced_to: 1
  - symbol: Si # 2
    coordinates: [  0.249999999787064,  0.250000000695044,  0.250000000504733 ]
    mass: 28.085500
    reduced_to: 2

supercell:
  lattice:
  - [    10.992947045718715,     0.000000008317897,     0.000000008421809 ] # a
  - [     0.000000012476863,    16.489420561147497,     0.000000008647877 ] # b
  - [     0.000000012632730,     0.000000008647907,    16.489420583634697 ] # c
  points:
  - symbol: Si # 1
    coordinates: [  0.999999999991716,  0.999999999877057,  0.999999999887902 ]
    mass: 28.085500
    reduced_to: 1
  - symbol: Si # 2
    coordinates: [  0.999999999991716,  0.166666666543724,  0.166666666554569 ]
    mass: 28.085500
    reduced_to: 1
  - symbol: Si # 3
    coordinates: [  0.999999999991716,  0.333333333210390,  0.333333333221235 ]
    mass: 28.085500
    reduced_to: 1
  - symbol: Si # 4
    coordinates: [  0.999999999991716,  0.499999999877057,  0.499999999887902 ]
    mass: 28.085500
    reduced_to: 1
  - symbol: Si # 5
    coordinates: [  0.999999999991716,  0.666666666543724,  0.666666666554569 ]
    mass: 28.085500
    reduced_to: 1
  - symbol: Si # 6
    coordinates: [  0.999999999991716,  0.833333333210390,  0.833333333221235 ]
    mass: 28.085500
    reduced_to: 1
  - symbol: Si # 7
    coordinates: [  0.249999999991716,  0.999999999877057,  0.166666666554569 ]
    mass: 28.085500
    reduced_to: 1
  - symbol: Si # 8
    coordinates: [  0.249999999991716,  0.166666666543724,  0.333333333221235 ]
    mass: 28.085500
    reduced_to: 1
  - symbol: Si # 9
    coordinates: [  0.249999999991716,  0.333333333210390,  0.499999999887902 ]
    mass: 28.085500
    reduced_to: 1
  - symbol: Si # 10
    coordinates: [  0.249999999991716,  0.499999999877057,  0.666666666554569 ]
    mass: 28.085500
    reduced_to: 1
  - symbol: Si # 11
    coordinates: [  0.249999999991716,  0.666666666543724,  0.833333333221235 ]
    mass: 28.085500
    reduced_to: 1
  - symbol: Si # 12
    coordinates: [  0.249999999991716,  0.833333333210390,  0.999999999887902 ]
    mass: 28.085500
    reduced_to: 1
  - symbol: Si # 13
    coordinates: [  0.499999999991716,  0.999999999877057,  0.333333333221235 ]
    mass: 28.085500
    reduced_to: 1
  - symbol: Si # 14
    coordinates: [  0.499999999991716,  0.166666666543724,  0.499999999887902 ]
    mass: 28.085500
    reduced_to: 1
  - symbol: Si # 15
    coordinates: [  0.499999999991716,  0.333333333210390,  0.666666666554569 ]
    mass: 28.085500
    reduced_to: 1
  - symbol: Si # 16
    coordinates: [  0.499999999991716,  0.499999999877057,  0.833333333221235 ]
    mass: 28.085500
    reduced_to: 1
  - symbol: Si # 17
    coordinates: [  0.499999999991716,  0.666666666543724,  0.999999999887902 ]
    mass: 28.085500
    reduced_to: 1
  - symbol: Si # 18
    coordinates: [  0.499999999991716,  0.833333333210390,  0.166666666554569 ]
    mass: 28.085500
    reduced_to: 1
  - symbol: Si # 19
    coordinates: [  0.749999999991716,  0.999999999877057,  0.499999999887902 ]
    mass: 28.085500
    reduced_to: 1
  - symbol: Si # 20
    coordinates: [  0.749999999991716,  0.166666666543724,  0.666666666554569 ]
    mass: 28.085500
    reduced_to: 1
  - symbol: Si # 21
    coordinates: [  0.749999999991716,  0.333333333210390,  0.833333333221235 ]
    mass: 28.085500
    reduced_to: 1
  - symbol: Si # 22
    coordinates: [  0.749999999991716,  0.499999999877057,  0.999999999887902 ]
    mass: 28.085500
    reduced_to: 1
  - symbol: Si # 23
    coordinates: [  0.749999999991716,  0.666666666543724,  0.166666666554569 ]
    mass: 28.085500
    reduced_to: 1
  - symbol: Si # 24
    coordinates: [  0.749999999991716,  0.833333333210390,  0.333333333221235 ]
    mass: 28.085500
    reduced_to: 1
  - symbol: Si # 25
    coordinates: [  0.999999999991716,  0.999999999877057,  0.666666666554569 ]
    mass: 28.085500
    reduced_to: 1
  - symbol: Si # 26
    coordinates: [  0.999999999991716,  0.166666666543724,  0.833333333221235 ]
    mass: 28.085500
    reduced_to: 1
  - symbol: Si # 27
    coordinates: [  0.999999999991716,  0.333333333210390,  0.999999999887902 ]
    mass: 28.085500
    reduced_to: 1
  - symbol: Si # 28
    coordinates: [  0.999999999991716,  0.499999999877057,  0.166666666554569 ]
    mass: 28.085500
    reduced_to: 1
  - symbol: Si # 29
    coordinates: [  0.999999999991716,  0.666666666543724,  0.333333333221235 ]
    mass: 28.085500
    reduced_to: 1
  - symbol: Si # 30
    coordinates: [  0.999999999991716,  0.833333333210390,  0.499999999887902 ]
    mass: 28.085500
    reduced_to: 1
  - symbol: Si # 31
    coordinates: [  0.249999999991716,  0.999999999877057,  0.833333333221235 ]
    mass: 28.085500
    reduced_to: 1
  - symbol: Si # 32
    coordinates: [  0.249999999991716,  0.166666666543724,  0.999999999887902 ]
    mass: 28.085500
    reduced_to: 1
  - symbol: Si # 33
    coordinates: [  0.249999999991716,  0.333333333210390,  0.166666666554569 ]
    mass: 28.085500
    reduced_to: 1
  - symbol: Si # 34
    coordinates: [  0.249999999991716,  0.499999999877057,  0.333333333221235 ]
    mass: 28.085500
    reduced_to: 1
  - symbol: Si # 35
    coordinates: [  0.249999999991716,  0.666666666543724,  0.499999999887902 ]
    mass: 28.085500
    reduced_to: 1
  - symbol: Si # 36
    coordinates: [  0.249999999991716,  0.833333333210390,  0.666666666554569 ]
    mass: 28.085500
    reduced_to: 1
  - symbol: Si # 37
    coordinates: [  0.499999999991716,  0.999999999877057,  0.999999999887902 ]
    mass: 28.085500
    reduced_to: 1
  - symbol: Si # 38
    coordinates: [  0.499999999991716,  0.166666666543724,  0.166666666554569 ]
    mass: 28.085500
    reduced_to: 1
  - symbol: Si # 39
    coordinates: [  0.499999999991716,  0.333333333210390,  0.333333333221235 ]
    mass: 28.085500
    reduced_to: 1
  - symbol: Si # 40
    coordinates: [  0.499999999991716,  0.499999999877057,  0.499999999887902 ]
    mass: 28.085500
    reduced_to: 1
  - symbol: Si # 41
    coordinates: [  0.499999999991716,  0.666666666543724,  0.666666666554569 ]
    mass: 28.085500
    reduced_to: 1
  - symbol: Si # 42
    coordinates: [  0.499999999991716,  0.833333333210390,  0.833333333221235 ]
    mass: 28.085500
    reduced_to: 1
  - symbol: Si # 43
    coordinates: [  0.749999999991716,  0.999999999877057,  0.166666666554569 ]
    mass: 28.085500
    reduced_to: 1
  - symbol: Si # 44
    coordinates: [  0.749999999991716,  0.166666666543724,  0.333333333221235 ]
    mass: 28.085500
    reduced_to: 1
  - symbol: Si # 45
    coordinates: [  0.749999999991716,  0.333333333210390,  0.499999999887902 ]
    mass: 28.085500
    reduced_to: 1
  - symbol: Si # 46
    coordinates: [  0.749999999991716,  0.499999999877057,  0.666666666554569 ]
    mass: 28.085500
    reduced_to: 1
  - symbol: Si # 47
    coordinates: [  0.749999999991716,  0.666666666543724,  0.833333333221235 ]
    mass: 28.085500
    reduced_to: 1
  - symbol: Si # 48
    coordinates: [  0.749999999991716,  0.833333333210390,  0.999999999887902 ]
    mass: 28.085500
    reduced_to: 1
  - symbol: Si # 49
    coordinates: [  0.999999999991716,  0.166666666543724,  0.499999999887902 ]
    mass: 28.085500
    reduced_to: 1
  - symbol: Si # 50
    coordinates: [  0.999999999991716,  0.333333333210390,  0.666666666554569 ]
    mass: 28.085500
    reduced_to: 1
  - symbol: Si # 51
    coordinates: [  0.999999999991716,  0.499999999877057,  0.833333333221235 ]
    mass: 28.085500
    reduced_to: 1
  - symbol: Si # 52
    coordinates: [  0.999999999991716,  0.666666666543724,  0.999999999887902 ]
    mass: 28.085500
    reduced_to: 1
  - symbol: Si # 53
    coordinates: [  0.999999999991716,  0.833333333210390,  0.166666666554569 ]
    mass: 28.085500
    reduced_to: 1
  - symbol: Si # 54
    coordinates: [  0.999999999991716,  0.999999999877057,  0.333333333221235 ]
    mass: 28.085500
    reduced_to: 1
  - symbol: Si # 55
    coordinates: [  0.249999999991716,  0.166666666543724,  0.666666666554569 ]
    mass: 28.085500
    reduced_to: 1
  - symbol: Si # 56
    coordinates: [  0.249999999991716,  0.333333333210390,  0.833333333221235 ]
    mass: 28.085500
    reduced_to: 1
  - symbol: Si # 57
    coordinates: [  0.249999999991716,  0.499999999877057,  0.999999999887902 ]
    mass: 28.085500
    reduced_to: 1
  - symbol: Si # 58
    coordinates: [  0.249999999991716,  0.666666666543724,  0.166666666554569 ]
    mass: 28.085500
    reduced_to: 1
  - symbol: Si # 59
    coordinates: [  0.249999999991716,  0.833333333210390,  0.333333333221235 ]
    mass: 28.085500
    reduced_to: 1
  - symbol: Si # 60
    coordinates: [  0.249999999991716,  0.999999999877057,  0.499999999887902 ]
    mass: 28.085500
    reduced_to: 1
  - symbol: Si # 61
    coordinates: [  0.499999999991716,  0.166666666543724,  0.833333333221235 ]
    mass: 28.085500
    reduced_to: 1
  - symbol: Si # 62
    coordinates: [  0.499999999991716,  0.333333333210390,  0.999999999887902 ]
    mass: 28.085500
    reduced_to: 1
  - symbol: Si # 63
    coordinates: [  0.499999999991716,  0.499999999877057,  0.166666666554569 ]
    mass: 28.085500
    reduced_to: 1
  - symbol: Si # 64
    coordinates: [  0.499999999991716,  0.666666666543724,  0.333333333221235 ]
    mass: 28.085500
    reduced_to: 1
  - symbol: Si # 65
    coordinates: [  0.499999999991716,  0.833333333210390,  0.499999999887902 ]
    mass: 28.085500
    reduced_to: 1
  - symbol: Si # 66
    coordinates: [  0.499999999991716,  0.999999999877057,  0.666666666554569 ]
    mass: 28.085500
    reduced_to: 1
  - symbol: Si # 67
    coordinates: [  0.749999999991716,  0.166666666543724,  0.999999999887902 ]
    mass: 28.085500
    reduced_to: 1
  - symbol: Si # 68
    coordinates: [  0.749999999991716,  0.333333333210390,  0.166666666554569 ]
    mass: 28.085500
    reduced_to: 1
  - symbol: Si # 69
    coordinates: [  0.749999999991716,  0.499999999877057,  0.333333333221235 ]
    mass: 28.085500
    reduced_to: 1
  - symbol: Si # 70
    coordinates: [  0.749999999991716,  0.666666666543724,  0.499999999887902 ]
    mass: 28.085500
    reduced_to: 1
  - symbol: Si # 71
    coordinates: [  0.749999999991716,  0.833333333210390,  0.666666666554569 ]
    mass: 28.085500
    reduced_to: 1
  - symbol: Si # 72
    coordinates: [  0.749999999991716,  0.999999999877057,  0.833333333221235 ]
    mass: 28.085500
    reduced_to: 1
  - symbol: Si # 73
    coordinates: [  0.125000000299944,  0.083333333381966,  0.083333333413685 ]
    mass: 28.085500
    reduced_to: 73
  - symbol: Si # 74
    coordinates: [  0.125000000299944,  0.250000000048633,  0.250000000080351 ]
    mass: 28.085500
    reduced_to: 73
  - symbol: Si # 75
    coordinates: [  0.125000000299944,  0.416666666715299,  0.416666666747018 ]
    mass: 28.085500
    reduced_to: 73
  - symbol: Si # 76
    coordinates: [  0.125000000299944,  0.583333333381966,  0.583333333413685 ]
    mass: 28.085500
    reduced_to: 73
  - symbol: Si # 77
    coordinates: [  0.125000000299944,  0.750000000048633,  0.750000000080351 ]
    mass: 28.085500
    reduced_to: 73
  - symbol: Si # 78
    coordinates: [  0.125000000299944,  0.916666666715299,  0.916666666747018 ]
    mass: 28.085500
    reduced_to: 73
  - symbol: Si # 79
    coordinates: [  0.375000000299944,  0.083333333381966,  0.250000000080351 ]
    mass: 28.085500
    reduced_to: 73
  - symbol: Si # 80
    coordinates: [  0.375000000299944,  0.250000000048633,  0.416666666747018 ]
    mass: 28.085500
    reduced_to: 73
  - symbol: Si # 81
    coordinates: [  0.375000000299944,  0.416666666715299,  0.583333333413685 ]
    mass: 28.085500
    reduced_to: 73
  - symbol: Si # 82
    coordinates: [  0.375000000299944,  0.583333333381966,  0.750000000080351 ]
    mass: 28.085500
    reduced_to: 73
  - symbol: Si # 83
    coordinates: [  0.375000000299944,  0.750000000048633,  0.916666666747018 ]
    mass: 28.085500
    reduced_to: 73
  - symbol: Si # 84
    coordinates: [  0.375000000299944,  0.916666666715299,  0.083333333413685 ]
    mass: 28.085500
    reduced_to: 73
  - symbol: Si # 85
    coordinates: [  0.625000000299944,  0.083333333381966,  0.416666666747018 ]
    mass: 28.085500
    reduced_to: 73
  - symbol: Si # 86
    coordinates: [  0.625000000299944,  0.250000000048633,  0.583333333413685 ]
    mass: 28.085500
    reduced_to: 73
  - symbol: Si # 87
    coordinates: [  0.625000000299944,  0.416666666715299,  0.750000000080351 ]
    mass: 28.085500
    reduced_to: 73
  - symbol: Si # 88
    coordinates: [  0.625000000299944,  0.583333333381966,  0.916666666747018 ]
    mass: 28.085500
    reduced_to: 73
  - symbol: Si # 89
    coordinates: [  0.625000000299944,  0.750000000048633,  0.083333333413685 ]
    mass: 28.085500
    reduced_to: 73
  - symbol: Si # 90
    coordinates: [  0.625000000299944,  0.916666666715299,  0.250000000080351 ]
    mass: 28.085500
    reduced_to: 73
  - symbol: Si # 91
    coordinates: [  0.875000000299944,  0.083333333381966,  0.583333333413685 ]
    mass: 28.085500
    reduced_to: 73
  - symbol: Si # 92
    coordinates: [  0.875000000299944,  0.250000000048633,  0.750000000080351 ]
    mass: 28.085500
    reduced_to: 73
  - symbol: Si # 93
    coordinates: [  0.875000000299944,  0.416666666715299,  0.916666666747018 ]
    mass: 28.085500
    reduced_to: 73
  - symbol: Si # 94
    coordinates: [  0.875000000299944,  0.583333333381966,  0.083333333413685 ]
    mass: 28.085500
    reduced_to: 73
  - symbol: Si # 95
    coordinates: [  0.875000000299944,  0.750000000048633,  0.250000000080351 ]
    mass: 28.085500
    reduced_to: 73
  - symbol: Si # 96
    coordinates: [  0.875000000299944,  0.916666666715299,  0.416666666747018 ]
    mass: 28.085500
    reduced_to: 73
  - symbol: Si # 97
    coordinates: [  0.125000000299944,  0.083333333381966,  0.750000000080351 ]
    mass: 28.085500
    reduced_to: 73
  - symbol: Si # 98
    coordinates: [  0.125000000299944,  0.250000000048633,  0.916666666747018 ]
    mass: 28.085500
    reduced_to: 73
  - symbol: Si # 99
    coordinates: [  0.125000000299944,  0.416666666715299,  0.083333333413685 ]
    mass: 28.085500
    reduced_to: 73
  - symbol: Si # 100
    coordinates: [  0.125000000299944,  0.583333333381966,  0.250000000080351 ]
    mass: 28.085500
    reduced_to: 73
  - symbol: Si # 101
    coordinates: [  0.125000000299944,  0.750000000048633,  0.416666666747018 ]
    mass: 28.085500
    reduced_to: 73
  - symbol: Si # 102
    coordinates: [  0.125000000299944,  0.916666666715299,  0.583333333413685 ]
    mass: 28.085500
    reduced_to: 73
  - symbol: Si # 103
    coordinates: [  0.375000000299944,  0.083333333381966,  0.916666666747018 ]
    mass: 28.085500
    reduced_to: 73
  - symbol: Si # 104
    coordinates: [  0.375000000299944,  0.250000000048633,  0.083333333413685 ]
    mass: 28.085500
    reduced_to: 73
  - symbol: Si # 105
    coordinates: [  0.375000000299944,  0.416666666715299,  0.250000000080351 ]
    mass: 28.085500
    reduced_to: 73
  - symbol: Si # 106
    coordinates: [  0.375000000299944,  0.583333333381966,  0.416666666747018 ]
    mass: 28.085500
    reduced_to: 73
  - symbol: Si # 107
    coordinates: [  0.375000000299944,  0.750000000048633,  0.583333333413685 ]
    mass: 28.085500
    reduced_to: 73
  - symbol: Si # 108
    coordinates: [  0.375000000299944,  0.916666666715299,  0.750000000080351 ]
    mass: 28.085500
    reduced_to: 73
  - symbol: Si # 109
    coordinates: [  0.625000000299944,  0.083333333381966,  0.083333333413685 ]
    mass: 28.085500
    reduced_to: 73
  - symbol: Si # 110
    coordinates: [  0.625000000299944,  0.250000000048633,  0.250000000080351 ]
    mass: 28.085500
    reduced_to: 73
  - symbol: Si # 111
    coordinates: [  0.625000000299944,  0.416666666715299,  0.416666666747018 ]
    mass: 28.085500
    reduced_to: 73
  - symbol: Si # 112
    coordinates: [  0.625000000299944,  0.583333333381966,  0.583333333413685 ]
    mass: 28.085500
    reduced_to: 73
  - symbol: Si # 113
    coordinates: [  0.625000000299944,  0.750000000048633,  0.750000000080351 ]
    mass: 28.085500
    reduced_to: 73
  - symbol: Si # 114
    coordinates: [  0.625000000299944,  0.916666666715299,  0.916666666747018 ]
    mass: 28.085500
    reduced_to: 73
  - symbol: Si # 115
    coordinates: [  0.875000000299944,  0.083333333381966,  0.250000000080351 ]
    mass: 28.085500
    reduced_to: 73
  - symbol: Si # 116
    coordinates: [  0.875000000299944,  0.250000000048633,  0.416666666747018 ]
    mass: 28.085500
    reduced_to: 73
  - symbol: Si # 117
    coordinates: [  0.875000000299944,  0.416666666715299,  0.583333333413685 ]
    mass: 28.085500
    reduced_to: 73
  - symbol: Si # 118
    coordinates: [  0.875000000299944,  0.583333333381966,  0.750000000080351 ]
    mass: 28.085500
    reduced_to: 73
  - symbol: Si # 119
    coordinates: [  0.875000000299944,  0.750000000048633,  0.916666666747018 ]
    mass: 28.085500
    reduced_to: 73
  - symbol: Si # 120
    coordinates: [  0.875000000299944,  0.916666666715299,  0.083333333413685 ]
    mass: 28.085500
    reduced_to: 73
  - symbol: Si # 121
    coordinates: [  0.125000000299944,  0.250000000048633,  0.583333333413685 ]
    mass: 28.085500
    reduced_to: 73
  - symbol: Si # 122
    coordinates: [  0.125000000299944,  0.416666666715300,  0.750000000080351 ]
    mass: 28.085500
    reduced_to: 73
  - symbol: Si # 123
    coordinates: [  0.125000000299944,  0.583333333381966,  0.916666666747018 ]
    mass: 28.085500
    reduced_to: 73
  - symbol: Si # 124
    coordinates: [  0.125000000299944,  0.750000000048633,  0.083333333413685 ]
    mass: 28.085500
    reduced_to: 73
  - symbol: Si # 125
    coordinates: [  0.125000000299944,  0.916666666715299,  0.250000000080351 ]
    mass: 28.085500
    reduced_to: 73
  - symbol: Si # 126
    coordinates: [  0.125000000299944,  0.083333333381966,  0.416666666747018 ]
    mass: 28.085500
    reduced_to: 73
  - symbol: Si # 127
    coordinates: [  0.375000000299944,  0.250000000048633,  0.750000000080351 ]
    mass: 28.085500
    reduced_to: 73
  - symbol: Si # 128
    coordinates: [  0.375000000299944,  0.416666666715300,  0.916666666747018 ]
    mass: 28.085500
    reduced_to: 73
  - symbol: Si # 129
    coordinates: [  0.375000000299944,  0.583333333381966,  0.083333333413685 ]
    mass: 28.085500
    reduced_to: 73
  - symbol: Si # 130
    coordinates: [  0.375000000299944,  0.750000000048633,  0.250000000080351 ]
    mass: 28.085500
    reduced_to: 73
  - symbol: Si # 131
    coordinates: [  0.375000000299944,  0.916666666715299,  0.416666666747018 ]
    mass: 28.085500
    reduced_to: 73
  - symbol: Si # 132
    coordinates: [  0.375000000299944,  0.083333333381966,  0.583333333413685 ]
    mass: 28.085500
    reduced_to: 73
  - symbol: Si # 133
    coordinates: [  0.625000000299944,  0.250000000048633,  0.916666666747018 ]
    mass: 28.085500
    reduced_to: 73
  - symbol: Si # 134
    coordinates: [  0.625000000299944,  0.416666666715300,  0.083333333413685 ]
    mass: 28.085500
    reduced_to: 73
  - symbol: Si # 135
    coordinates: [  0.625000000299944,  0.583333333381966,  0.250000000080351 ]
    mass: 28.085500
    reduced_to: 73
  - symbol: Si # 136
    coordinates: [  0.625000000299944,  0.750000000048633,  0.416666666747018 ]
    mass: 28.085500
    reduced_to: 73
  - symbol: Si # 137
    coordinates: [  0.625000000299944,  0.916666666715299,  0.583333333413685 ]
    mass: 28.085500
    reduced_to: 73
  - symbol: Si # 138
    coordinates: [  0.625000000299944,  0.083333333381966,  0.750000000080351 ]
    mass: 28.085500
    reduced_to: 73
  - symbol: Si # 139
    coordinates: [  0.875000000299944,  0.250000000048633,  0.083333333413685 ]
    mass: 28.085500
    reduced_to: 73
  - symbol: Si # 140
    coordinates: [  0.875000000299944,  0.416666666715300,  0.250000000080351 ]
    mass: 28.085500
    reduced_to: 73
  - symbol: Si # 141
    coordinates: [  0.875000000299944,  0.583333333381966,  0.416666666747018 ]
    mass: 28.085500
    reduced_to: 73
  - symbol: Si # 142
    coordinates: [  0.875000000299944,  0.750000000048633,  0.583333333413685 ]
    mass: 28.085500
    reduced_to: 73
  - symbol: Si # 143
    coordinates: [  0.875000000299944,  0.916666666715299,  0.750000000080351 ]
    mass: 28.085500
    reduced_to: 73
  - symbol: Si # 144
    coordinates: [  0.875000000299944,  0.083333333381966,  0.916666666747018 ]
    mass: 28.085500
    reduced_to: 73

displacements:
- atom:    1
  displacement:
    [   0.0055470019664043,  0.0083205029406105,  0.0000000000086133 ]
  forces:
  - [  -0.0621913950902782, -0.0932721905632816, -0.0028915153563967 ]
  - [  -0.0024083688771869,  0.0020954758203136,  0.0027164386559078 ]
  - [   0.0002049677971561,  0.0005041310042435,  0.0001831829275141 ]
  - [   0.0000000425566712,  0.0000000397012656,  0.0000000434908012 ]
  - [   0.0002343871506022,  0.0004826261048063,  0.0001623653954747 ]
  - [  -0.0017457529850844,  0.0015308686846791,  0.0021078926262799 ]
  - [   0.0015885469302234, -0.0033149003281819,  0.0019476294610967 ]
  - [   0.0001041803916499,  0.0001140437113241,  0.0002379201362995 ]
  - [   0.0000000424576182,  0.0000000397276718,  0.0000000432314250 ]
  - [   0.0000000425039211,  0.0000000398280059,  0.0000000434061940 ]
  - [   0.0002711482110669, -0.0003086422949637, -0.0002527345580760 ]
  - [  -0.0010095417148289,  0.0002627287302136, -0.0002081458907917 ]
  - [   0.0006881250106243,  0.0006374259912815, -0.0000016821989189 ]
  - [   0.0000000425999508,  0.0000000398436410,  0.0000000433977674 ]
  - [   0.0000000423382683,  0.0000000399769633,  0.0000000433739295 ]
  - [   0.0000000423385626,  0.0000000400504415,  0.0000000436042618 ]
  - [   0.0006596666044485,  0.0009858896558217,  0.0000189049721954 ]
  - [   0.0000806956830657, -0.0000865245437813,  0.0001424555125877 ]
  - [   0.0000272410975024, -0.0000467926771015,  0.0001874381507843 ]
  - [   0.0000005534309214,  0.0000470421216641, -0.0000491141610672 ]
  - [   0.0002601694192601, -0.0002918399834105,  0.0002409211904673 ]
  - [   0.0000314161778851,  0.0004060835783911, -0.0001853792687922 ]
  - [  -0.0001690896108472, -0.0001211818168196,  0.0001867984039177 ]
  - [   0.0001021338459313,  0.0001111057736169, -0.0002351803895100 ]
  - [  -0.0001897696966163, -0.0002846959258232, -0.0000076704370008 ]
  - [  -0.0017852940997445,  0.0016532400465535, -0.0023015986892704 ]
  - [  -0.0001969965114903, -0.0000712635330946,  0.0000045562918447 ]
  - [   0.0001541532272716,  0.0002752827824702, -0.0000036123390234 ]
  - [   0.0002036411706222,  0.0005034757663740, -0.0001847097148299 ]
  - [  -0.0000314417859047,  0.0000399307542841,  0.0001258273094774 ]
  - [   0.0011277916048945, -0.0030080391576967, -0.0012471639163910 ]
  - [   0.0039540973647682,  0.0036412064628204, -0.0004817466547589 ]
  - [  -0.0001519478328691, -0.0001008894176102, -0.0001719187591237 ]
  - [   0.0000000425336264,  0.0000000399794944,  0.0000000433160358 ]
  - [   0.0000000424285038,  0.0000000399218269,  0.0000000431255151 ]
  - [   0.0000034810032877,  0.0000432227634538,  0.0000454761892799 ]
  - [  -0.0001290504843571, -0.0005694746611162,  0.0000090501910478 ]
  - [   0.0000809931243445, -0.0000715365983902, -0.0001285987747132 ]
  - [   0.0000000424730669,  0.0000000400528777,  0.0000000435516220 ]
  - [   0.0000000424165388,  0.0000000396590512,  0.0000000433547427 ]
  - [   0.0000000423786460,  0.0000000400545279,  0.0000000432584216 ]
  - [  -0.0006521103283215,  0.0003783099495314,  0.0003223734276181 ]
  - [   0.0015328325191677, -0.0032738077523324, -0.0019030822963790 ]
  - [   0.0000002049232191,  0.0000467897895386, -0.0000655712516981 ]
  - [   0.0000000424214691,  0.0000000399962682,  0.0000000433075531 ]
  - [   0.0000000423354804,  0.0000000398263878,  0.0000000435731588 ]
  - [   0.0001775005257007, -0.0003811570529662,  0.0001593242159317 ]
  - [   0.0034097198455483,  0.0031251392247876,  0.0005205460223184 ]
  - [  -0.0000298174561865,  0.0000376707127501, -0.0001205819712252 ]
  - [   0.0002332798411160,  0.0004856680332538, -0.0001661093419124 ]
  - [  -0.0002152853020495,  0.0005213400933029,  0.0000079133094059 ]
  - [  -0.0001826102534118, -0.0001222374592544,  0.0000045347829371 ]
  - [  -0.0023869318919120,  0.0019333485943195, -0.0025353661505046 ]
  - [  -0.0001898077620593, -0.0002847190102857, -0.0000027982035396 ]
  - [   0.0001108078717173,  0.0001200315525056,  0.0003382569681153 ]
  - [   0.0002113911673985, -0.0003135866546292, -0.0001918937803597 ]
  - [   0.0000202606754437,  0.0003905660547508,  0.0001840585023553 ]
  - [  -0.0000839021985879, -0.0000757770682081, -0.0001018705438352 ]
  - [   0.0000038333653876,  0.0000434643441753,  0.0000765286069534 ]
  - [   0.0000245182035911, -0.0000451683587172, -0.0001821929205244 ]
  - [  -0.0006059890032726,  0.0004101916370239, -0.0003532674133464 ]
  - [   0.0006573511052934,  0.0009897674575665, -0.0000204805998439 ]
  - [   0.0000000423875646,  0.0000000399527296,  0.0000000434142764 ]
  - [   0.0000000425028091,  0.0000000395535495,  0.0000000434883401 ]
  - [   0.0000000423448112,  0.0000000399132630,  0.0000000433423505 ]
  - [   0.0006291387206258,  0.0006767888243793, -0.0000036754078421 ]
  - [  -0.0010370075495017,  0.0002420587201628,  0.0001979527829440 ]
  - [  -0.0000947370727743, -0.0000511303211915,  0.0001145123892662 ]
  - [   0.0000000425844750,  0.0000000400161222,  0.0000000433898124 ]
  - [   0.0000000424134122,  0.0000000400787297,  0.0000000433801070 ]
  - [   0.0000954417698503,  0.0001049695222926, -0.0003720636846209 ]
  - [   0.0010969625190813, -0.0029833020754120,  0.0011941931759148 ]
  - [   0.0280354531012089,  0.0290857117737353,  0.0259646272601038 ]
  - [  -0.0002424062857143,  0.0004223813006137,  0.0001000897413818 ]
  - [  -0.0000000424320314, -0.0000000398861596, -0.0000000432969280 ]
  - [  -0.0000000425048297, -0.0000000397751811, -0.0000000431558524 ]
  - [   0.0004968339977772,  0.0009172209712174,  0.0006006944801709 ]
  - [  -0.0026580688507393,  0.0081096242017766,  0.0048687229859156 ]
  - [  -0.0001364151295293, -0.0000197097093832, -0.0000515163271260 ]
  - [  -0.0000000426098918, -0.0000000397772414, -0.0000000432855054 ]
  - [  -0.0000000423196625, -0.0000000397928987, -0.0000000434767151 ]
  - [  -0.0000000425727725, -0.0000000398918289, -0.0000000432207141 ]
  - [  -0.0003926587718338,  0.0001620228308317, -0.0002160726234933 ]
  - [  -0.0003230503392951, -0.0002565355922187,  0.0001627154057557 ]
  - [   0.0000336413531186,  0.0000916692727579,  0.0001812903617454 ]
  - [  -0.0000000422943385, -0.0000000401286237, -0.0000000434375586 ]
  - [  -0.0000000421916622, -0.0000000399082446, -0.0000000435193769 ]
  - [  -0.0003359860194040, -0.0005015160354917, -0.0000639827639479 ]
  - [   0.0008597620279033,  0.0009932723768107,  0.0007005731836413 ]
  - [  -0.0001325788382546, -0.0000175085532431,  0.0000473050254708 ]
  - [  -0.0000582306254304, -0.0000488302101493,  0.0000151470527410 ]
  - [   0.0005104717410445,  0.0009174805986858, -0.0005938207456137 ]
  - [   0.0000341297277114, -0.0008033612088997,  0.0000757358917064 ]
  - [  -0.0000636217355542, -0.0008635870807072,  0.0000194752994918 ]
  - [  -0.0002357025428890,  0.0004217722469998, -0.0001034812365471 ]
  - [   0.0000308712892967,  0.0000094312145782,  0.0000807051432031 ]
  - [   0.0012393242885442,  0.0012298232343827, -0.0022916332808670 ]
  - [   0.0018241690091815,  0.0032668178705371, -0.0018355949729431 ]
  - [  -0.0000594108302731, -0.0008687306968769, -0.0000178559522636 ]
  - [   0.0000210257873019, -0.0003163335266221,  0.0002122712158469 ]
  - [   0.0001135775346263, -0.0000288530838830,  0.0002739463538770 ]
  - [  -0.0000569213630131, -0.0000502149705899, -0.0000169742514031 ]
  - [   0.0024571630230577,  0.0016394790159739, -0.0017258197781611 ]
  - [   0.0008604366605173,  0.0009967021095659, -0.0007235314299092 ]
  - [  -0.0000000423558829, -0.0000000398107062, -0.0000000433352899 ]
  - [  -0.0000000425370930, -0.0000000398008639, -0.0000000434016011 ]
  - [  -0.0000000423089957, -0.0000000400195048, -0.0000000433256819 ]
  - [   0.0006012385866399,  0.0004784094079051, -0.0008784231446157 ]
  - [  -0.0002729193932332, -0.0002626729965613, -0.0001592438337967 ]