 1
 REF_virial="-0.01493536       0.00000000      -0.00000000       0.00000000      -0.01238371      -0.00000000      -0.00000000      -0.00000000      -0.01474109" REF_energy=-0.84696938 config_type=IsolatedAtom gap_rss_nonperiodic=T energy=-.84696856975434798 cutoff=5.00000000 nneightol=1.20000000 pbc="T T T" Lattice="20.00000000       0.00000000       0.00000000      -0.00000000      20.50000000       0.00000000       0.00000000       0.00000000      21.00000000" Properties=species:S:1:pos:R:3:REF_forces:R:3:Z:I:1:map_shift:I:3:n_neighb:I:1:force:R:3
 Si              0.00000000      0.00000000      0.00000000      0.00000000     -0.00000000      0.00000000      14       0       0       0       0      0.00000000      0.00000000      0.00000000
 2
 REF_virial="53.05092973       0.00000000       0.00000000       0.00000000      -0.20781098      -0.00000000       0.00000000      -0.00000000      -0.20737148" REF_energy=2.64963928 config_type=dimer gap_rss_nonperiodic=T energy=2.6495835860240344 cutoff=5.00000000 nneightol=1.20000000 pbc="T T T" Lattice="15.00000000       0.00000000       0.00000000      -0.00000000      15.50000000       0.00000000       0.00000000       0.00000000      16.00000000" Properties=species:S:1:pos:R:3:REF_forces:R:3:Z:I:1:map_shift:I:3:n_neighb:I:1:force:R:3
 Si              0.00000000      0.00000000      0.00000000    -35.48083138      0.00000000     -0.00000000      14       0       0       0       1    -35.59666969      0.00000000      0.00000000
 Si              1.50000000      0.00000000      0.00000000     35.48083138     -0.00000000      0.00000000      14       0       0       0       1     35.59666969      0.00000000      0.00000000
 2
 REF_virial="19.94439369       0.00000000       0.00000000       0.00000000      -0.14483818      -0.00000000       0.00000000      -0.00000000      -0.14376408" REF_energy=-2.82750866 config_type=dimer gap_rss_nonperiodic=T energy=-2.8275914949816960 cutoff=5.00000000 nneightol=1.20000000 pbc="T T T" Lattice="15.00000000       0.00000000       0.00000000      -0.00000000      15.50000000       0.00000000       0.00000000       0.00000000      16.00000000" Properties=species:S:1:pos:R:3:REF_forces:R:3:Z:I:1:map_shift:I:3:n_neighb:I:1:force:R:3
 Si              0.00000000      0.00000000      0.00000000    -11.47633874     -0.00000000     -0.00000000      14       0       0       0       1    -12.47256437      0.00000000      0.00000000
 Si              1.75000005      0.00000000      0.00000000     11.47633874      0.00000000      0.00000000      14       0       0       0       1     12.47256437      0.00000000      0.00000000
 2
 REF_virial="7.14465799       0.00000000       0.00000000       0.00000000      -0.08989529      -0.00000000       0.00000000      -0.00000000      -0.08593611" REF_energy=-4.84248485 config_type=dimer gap_rss_nonperiodic=T energy=-4.8423471652598131 cutoff=5.00000000 nneightol=1.20000000 pbc="T T T" Lattice="15.00000000       0.00000000       0.00000000      -0.00000000      15.50000000       0.00000000       0.00000000       0.00000000      16.00000000" Properties=species:S:1:pos:R:3:REF_forces:R:3:Z:I:1:map_shift:I:3:n_neighb:I:1:force:R:3
 Si              0.00000000      0.00000000      0.00000000     -3.61522516      0.00000000     -0.00000000      14       0       0       0       1     -4.10243650      0.00000000      0.00000000
 Si              1.99999995      0.00000000      0.00000000      3.61522516     -0.00000000      0.00000000      14       0       0       0       1      4.10243650      0.00000000      0.00000000
 8
 REF_virial="-3.18910889       0.00000001      -0.00000413       0.00000001       1.98758485       0.00000058      -0.00000413       0.00000058       5.53188343" REF_energy=-40.13127081 config_type=bulk gap_rss_group=RSS energy=-40.131275572307359 cutoff=5.00000000 nneightol=1.20000000 pbc="T T T" Lattice="5.26905483      -0.00000001      -0.00000236       0.00000001       5.01239795       0.00000210      -2.63453241      -2.50619920       4.96344588" Properties=species:S:1:pos:R:3:REF_forces:R:3:Z:I:1:map_shift:I:3:n_neighb:I:1:force:R:3
 Si              1.41377616     -0.68477045      3.72330374     -0.47882457     -0.00723491     -0.10022947      14      -1       0      -1      32     -0.41478054     -0.00178618     -0.12058952
 Si              1.22074632      1.82142774      1.24014121      0.47882457     -0.00723492      0.10022946      14       0       0       0      32      0.41478076     -0.00178562      0.12059070
 Si             -1.41378057     -0.68477042      3.72330406      0.47882477     -0.00723491     -0.10022990      14       0       0      -1      32      0.41479331     -0.00178612     -0.12058111
 Si              4.04830300      1.82142776      1.24014089     -0.47882477     -0.00723491      0.10022989      14      -1       0       0      32     -0.41479345     -0.00178555      0.12058230
 Si              1.43337150      1.82016006      3.71418479     -0.63329003      0.00723491     -0.04310573      14      -1      -1      -1      32     -0.57893262      0.00178572     -0.01401362
 Si              1.20115088      4.32635830      1.24926245      0.63329003      0.00723491      0.04310573      14       0      -1       0      32      0.57893254      0.00178607      0.01401250
 Si             -1.43337609      1.82016004      3.71418593      0.63329012      0.00723491     -0.04310630      14       0      -1      -1      32      0.57894448      0.00178566     -0.01400664
 Si              4.06789853      4.32635827      1.24926132     -0.63329012      0.00723491      0.04310630      14      -1      -1       0      32     -0.57894450      0.00178601      0.01400538
 10
 REF_virial="0.59539141      -0.07503410       0.14708524      -0.07503410       0.32875438      -0.05110888       0.14708524      -0.05110888       6.86436711" REF_energy=-50.09871515 config_type=bulk gap_rss_group=RSS energy=-50.098693647383044 cutoff=5.00000000 nneightol=1.20000000 pbc="T T T" Lattice="5.42986252      -1.45821223      -0.16625306       1.46344584       5.45229528      -0.01385579       0.14198243      -0.02356831       4.73641846" Properties=species:S:1:pos:R:3:REF_forces:R:3:Z:I:1:map_shift:I:3:n_neighb:I:1:force:R:3
 Si              4.05857275      0.63075711      3.44333031      0.08578628     -0.08124639     -0.00516250      14      -1       0      -1      44     -0.02714603     -0.09083282     -0.00163967
 Si              3.52907137      3.15996311      3.46491577     -0.01113548     -0.09426998      0.00350854      14       0      -1      -1      48      0.05961766     -0.13107027     -0.01461622
 Si              1.60796317      0.15365241      3.51224228     -0.00033803      0.00306791      0.00143192      14       0       0      -1      46     -0.00846049      0.02063795     -0.00449325
 Si              6.04818448      3.67175628      3.39303185     -0.08020182      0.09443517      0.02845523      14      -1      -1      -1      44      0.02591675      0.05318621      0.00917032
 Si              5.81951028      3.09110129      1.02870525     -0.12161539     -0.03376705     -0.01061162      14      -1      -1       0      44     -0.01027608     -0.05701261     -0.01342944
 Si              0.65540860      1.02771667      1.17655733     -0.02974026     -0.08117767     -0.00606003      14       0       0       0      48     -0.07266551      0.03870081      0.01109594
 Si              2.27480654      2.91080038      1.13170662     -0.01024743     -0.00603004      0.00095869      14       0      -1       0      46     -0.02474249     -0.01438725      0.00682967
 Si              4.15367471      1.26974686      1.07318487      0.12445302      0.02542873     -0.01006698      14      -1       0       0      44      0.03370921      0.09050777      0.00488806
 Si              3.89477960      4.79807709      1.09845051      0.03636876      0.09206358     -0.00139414      14       0      -1       0      48      0.11564309      0.08889773     -0.00076360
 Si              1.15127411      2.59425620      3.53562185      0.00667034      0.08149574     -0.00105913      14       0       0      -1      48     -0.09159611      0.00137248      0.00295820
 12
 REF_virial="4.28066525      -1.22183315       1.90232644      -1.22183315       2.83091779       3.36329180       1.90232644       3.36329180      -0.21313499" REF_energy=-59.04060209 config_type=bulk gap_rss_group=RSS energy=-59.040602693749420 cutoff=5.00000000 nneightol=1.20000000 pbc="T T T" Lattice="4.80071123      -0.36972768       1.50051882      -2.81675385       3.90575087       1.49719529      -2.85244564      -5.06493433       7.85735883" Properties=species:S:1:pos:R:3:REF_forces:R:3:Z:I:1:map_shift:I:3:n_neighb:I:1:force:R:3
 Si             -1.64215572     -1.42336623      9.12387310      0.00517749     -0.00095507      0.00218220      14      -1      -1      -1      39      0.01084498     -0.00656148     -0.00419133
 Si             -4.04155745     -1.24016334      8.37229438     -0.00055825     -0.00278666      0.00062118      14       0      -1      -1      40      0.00711178      0.00780264      0.00656460
 Si             -2.62907711     -3.19291248      7.62556231      0.00172686      0.00292637     -0.00081122      14       0       0      -1      41     -0.01676289      0.00380040     -0.00915539
 Si             -0.50070000      0.60833335      1.73080518      0.00142842      0.00047284     -0.00440327      14       0       0       0      40      0.00232684     -0.00125198      0.00422060
 Si             -1.90654310      2.56031987      2.47949177     -0.00101138      0.00583540     -0.00685128      14       0      -1       0      40     -0.00300182      0.00705374      0.00181892
 Si              0.49345453      2.37655967      3.23113814     -0.00319447      0.00388563     -0.00511927      14      -1      -1       0      40      0.00099499     -0.00848154     -0.00285345
 Si             -1.91504855     -1.92492244      5.66038219     -0.00715495     -0.00693544      0.01133793      14       0       0      -1      40     -0.02081941     -0.00157820      0.00065440
 Si             -0.92958962     -0.15650939      7.15853157      0.00217323     -0.00135497      0.01091378      14      -1      -1      -1      40      0.01004674     -0.01443522      0.00182023
 Si             -3.32996062      0.02740025      6.40755275      0.00599156     -0.00593645      0.00046364      14       0      -1      -1      40      0.00663934      0.00695710      0.01001015
 Si             -0.21780436      1.11032152      5.19630743     -0.00101807     -0.00186165     -0.00840980      14      -1      -1       0      40      0.00500514     -0.00680309     -0.00762107
 Si             -1.21039380     -0.65967281      3.69539656      0.00727248      0.00412728     -0.00417758      14       0       0       0      40     -0.00282761      0.00371431     -0.00637153
 Si             -2.61648405      1.29210231      4.44245529     -0.01083291      0.00258271      0.00425369      14       0      -1       0      40      0.00044193      0.00978332      0.00510386
 6
 REF_virial="3.72962716      -0.00000000       0.00000000      -0.00000000      -0.27414841       0.00000000       0.00000000       0.00000000      -1.45237297" REF_energy=-26.89151517 config_type=bulk gap_rss_group=RSS energy=-26.891515395183525 cutoff=5.00000000 nneightol=1.20000000 pbc="T T T" Lattice="4.29071413      -0.00000000       0.00000000       0.00000000       7.43459285       0.00000000       0.00000000       0.00000000       4.20192229" Properties=species:S:1:pos:R:3:REF_forces:R:3:Z:I:1:map_shift:I:3:n_neighb:I:1:force:R:3
 Si              4.28689964      2.47821796      2.10096114      0.01111140     -0.00079051      0.00000000      14      -1       0       0      32      0.10717667     -0.00062871      0.00000000
 Si              0.00381449      4.95637489      2.10096114     -0.01111140      0.00079051     -0.00000000      14       0      -1       0      32     -0.10717668      0.00062870     -0.00000000
 Si              2.14917155      6.19551439      2.10096114     -0.01111140     -0.00079051      0.00000000      14      -1      -1       0      32     -0.10717657     -0.00062889     -0.00000000
 Si              2.14154258      1.23907846      2.10096114      0.01111140      0.00079051     -0.00000000      14       0       0       0      32      0.10717648      0.00062879      0.00000000
 Si              0.00000000      0.00000000      2.10096114      0.00000000      0.00000000     -0.00000000      14       0       0       0      32      0.00000000      0.00000001     -0.00000000
 Si              2.14535706      3.71729642      2.10096114      0.00000000      0.00000000     -0.00000000      14       0       0       0      32      0.00000010      0.00000010      0.00000000
 8
 REF_virial="0.48548837       0.75845823       0.01736847       0.75845823      -1.22949776       1.14790241       0.01736847       1.14790241      -1.02678439" REF_energy=-39.31309917 config_type=bulk gap_rss_group=RSS energy=-39.313152282487899 cutoff=5.00000000 nneightol=1.20000000 pbc="T T T" Lattice="2.58092417      -0.06837628       0.19200237      -1.13028467       5.96749148      -0.24659683      -0.38624564      -1.50256682       9.42961230" Properties=species:S:1:pos:R:3:REF_forces:R:3:Z:I:1:map_shift:I:3:n_neighb:I:1:force:R:3
 Si              1.20141690      2.41199376      1.75219180     -0.15625939     -0.23068069     -0.14368404      14      -1       0       0      37     -0.27121662      0.47369168     -0.21182822
 Si             -0.45353920     -0.31621914      9.22108310     -0.11613099      0.26900636     -0.33685073      14       0       0      -1      39      0.09357955      0.19167398     -0.53306431
 Si              2.26946843     -0.31832606      4.95307966      0.08037186      0.21553879     -0.43179051      14      -1       0      -1      39      0.12086132      0.19986894      0.03377307
 Si             -0.53836923      2.02021227      5.43900371      0.05692884     -0.06144815      0.67825688      14       0       0      -1      36      0.00187713     -0.17341396      0.48454349
 Si              1.02779585      3.38246538      3.95456468     -0.00791593     -0.09829644     -0.07866119      14      -1      -1       0      36     -0.00975919     -0.35017991     -0.10471110
 Si              0.95763703      0.03341982      2.52998147     -0.20467162     -0.02560359      0.51431016      14       0       0       0      41     -0.00692717      0.14872214      0.29578206
 Si              1.32145541      4.68125354      0.46551457      0.10713348     -0.14535489      0.24069822      14      -1      -1       0      37      0.05636044     -0.46746551      0.51822696
 Si             -0.87288707      1.72772616      7.88985204      0.24054375      0.07683860     -0.44227879      14       0      -1      -1      35      0.01522454     -0.02289735     -0.48272195
 16
 REF_virial="-0.08109805      -0.36827685      -0.70617661      -0.36827685       7.28786361      -0.47684215      -0.70617661      -0.47684215       5.66283772" REF_energy=-78.37831617 config_type=bulk gap_rss_group=RSS energy=-78.378317213957530 cutoff=5.00000000 nneightol=1.20000000 pbc="T T T" Lattice="4.98091177       0.14753413       0.57887433       0.04102488       4.71154687      -1.52725083       2.03823517       3.37322121      13.86566952" Properties=species:S:1:pos:R:3:REF_forces:R:3:Z:I:1:map_shift:I:3:n_neighb:I:1:force:R:3
 Si              6.10244785      5.35286248     11.15454064     -0.06157980      0.17279710      0.42080859      14      -1      -1      -1      27     -0.05222990      0.13677933      0.46290889
 Si              2.62142575      4.58187368      8.66373985      0.05783789     -0.17851103     -0.43349878      14       0       0      -1      28      0.04281944     -0.12843258     -0.41377374
 Si              0.97600242      5.23286252      1.00181527      0.06890688     -0.11832708     -0.45785488      14       0      -1       0      27      0.07343292     -0.10922523     -0.48077054
 Si              4.42149680      1.29695661      5.01574376     -0.06764988      0.12640260      0.46770803      14      -1       0       0      28     -0.05595335      0.10007364      0.43032317
 Si              0.95880820      2.88031712      1.76312142      0.06025722     -0.17644914     -0.42818279      14       0       0       0      27      0.05447434     -0.13731057     -0.47026405
 Si              4.43818912      3.64941381      4.25301471     -0.05771054      0.17825125      0.44158294      14      -1      -1       0      28     -0.04179648      0.12677843      0.42130290
 Si              6.08529720      3.00009996     11.91507463     -0.07210400      0.11847715      0.46102763      14      -1       0      -1      27     -0.07891932      0.11193221      0.48358130
 Si              2.63726904      6.93429443      7.90241128      0.06862452     -0.12215754     -0.47330329      14       0      -1      -1      28      0.05669014     -0.10152154     -0.43419836
 Si              1.94746447      3.57659387      3.96429613     -0.05713741      0.17547081      0.43609593      14       0      -1       0      28     -0.04329413      0.12717521      0.41981598
 Si              3.44936392      2.95494101      2.05303176      0.05535279     -0.17870359     -0.43178808      14      -1       0       0      27      0.05099743     -0.13806821     -0.47490803
 Si              5.12728687      7.00764532      8.19162132      0.07507044     -0.12120689     -0.47047255      14      -1      -1      -1      28      0.05956480     -0.10034744     -0.42867324
 Si              3.59458737      2.92570944     11.62513871     -0.06818095      0.12119416      0.46587719      14       0       0      -1      27     -0.07388383      0.11252988      0.48757232
 Si              5.11216498      4.65485800      8.95211737      0.05767392     -0.17516932     -0.42671193      14      -1       0      -1      28      0.04603149     -0.12794750     -0.41131278
 Si              3.61191020      5.27860876     10.86475792     -0.05629657      0.17376487      0.42340439      14       0      -1      -1      27     -0.05028933      0.13758099      0.46762574
 Si              1.93097999      1.22388079      4.72617205     -0.06865056      0.12486285      0.46697309      14       0       0       0      28     -0.05635793      0.09966762      0.42643148
 Si              3.46668048      5.30749999      1.29174732      0.06558605     -0.12069618     -0.46166550      14      -1      -1       0      27      0.06871371     -0.10966425     -0.48566105
 8
 REF_virial="8.95522186      -0.11427578       0.00000023      -0.11427578       8.95522439       0.00000112       0.00000023       0.00000112      -8.31461468" REF_energy=-38.52940363 config_type=bulk gap_rss_group=RSS energy=-38.529400512873025 cutoff=5.00000000 nneightol=1.20000000 pbc="T T T" Lattice="5.51937174      -0.00931175      -0.00000003      -0.00931186       5.51937252      -0.00000019      -0.00000020      -0.00000103       5.97620769" Properties=species:S:1:pos:R:3:REF_forces:R:3:Z:I:1:map_shift:I:3:n_neighb:I:1:force:R:3
 Si              1.11173647      2.75322403      1.33737478      0.84024073      0.03216029     -0.34792810      14       0       0       0      28      0.71639131      0.01938463     -0.22307418
 Si              4.39832337      2.75683672      1.33737476     -0.84024070     -0.03216017     -0.34792809      14      -1      -1       0      28     -0.71639181     -0.01938484     -0.22307333
 Si              2.75671775      1.11175333      4.63883276     -0.02623634      0.83974882      0.34792807      14       0       0      -1      28     -0.03730443      0.71618775      0.22307010
 Si              2.75334176      4.39830546      4.63883264      0.02623631     -0.83974894      0.34792812      14      -1      -1      -1      28      0.03730458     -0.71618571      0.22307505
 Si              1.11175409      2.75671746      4.63883271      0.83974875     -0.02623637      0.34792809      14       0       0      -1      28      0.71618569     -0.03730439      0.22307333
 Si              4.39830543      2.75334132      4.63883269     -0.83974877      0.02623625      0.34792810      14      -1      -1      -1      28     -0.71618530      0.03730412      0.22307416
 Si              2.75683631      4.39832425      1.33737471     -0.03216020     -0.84024077     -0.34792807      14      -1      -1       0      28     -0.01938443     -0.71639597     -0.22307008
 Si              2.75322353      1.11173644      1.33737483      0.03216022      0.84024089     -0.34792812      14       0       0       0      28      0.01938439      0.71639441     -0.22307504
 6
 REF_virial="-0.93208543      -0.12604263       0.00000015      -0.12604263      -0.95505408       0.00000017       0.00000015       0.00000017       5.05865783" REF_energy=-32.14095120 config_type=bulk gap_rss_group=RSS energy=-32.140963127674695 cutoff=5.00000000 nneightol=1.20000000 pbc="T T T" Lattice="3.97656161       0.18613281      -0.00000015      -0.17546340       3.97704664      -0.00000015      -1.90054894      -2.08158954       7.57671708" Properties=species:S:1:pos:R:3:REF_forces:R:3:Z:I:1:map_shift:I:3:n_neighb:I:1:force:R:3
 Si              1.90054919      2.08158991      5.05114450     -0.00000000     -0.00000000      0.00000000      14      -1      -1      -1      30      0.00000035     -0.00000038     -0.00000051
 Si             -0.00000001      0.00000008      2.52557228      0.00000000     -0.00000000      0.00000000      14       0       0       0      30      0.00000053     -0.00000032      0.00000066
 Si             -0.08773161      1.98852333      1.26278611     -0.00000000     -0.00000000     -0.00000000      14       0      -1       0      30     -0.00000041      0.00000035     -0.00000066
 Si             -0.08773154      1.98852342      6.31393067      0.00000000      0.00000000      0.00000000      14       0      -1      -1      30     -0.00000032      0.00000037      0.00000051
 Si              1.90054915      2.08158969     -0.00000015     -0.00000000      0.00000000     -0.00000000      14      -1       0       0      30     -0.00000003      0.00000000      0.00000007
 Si              1.98828085      0.09306654      3.78835839      0.00000000      0.00000000      0.00000000      14      -1       0      -1      30     -0.00000011     -0.00000003     -0.00000007
 10
 REF_virial="2.94416527      -0.84595847       1.53657087      -0.84595847       0.46610525       0.22632769       1.53657087       0.22632769       0.85474501" REF_energy=-49.60236399 config_type=bulk gap_rss_group=RSS energy=-49.602356012252841 cutoff=5.00000000 nneightol=1.20000000 pbc="T T T" Lattice="4.02651667      -0.03003728       0.26625331      -0.03477487       3.80288797      -0.37408008       0.50274786      -0.63845713      12.86390752" Properties=species:S:1:pos:R:3:REF_forces:R:3:Z:I:1:map_shift:I:3:n_neighb:I:1:force:R:3
 Si              1.95853534      0.35920617     11.20506040     -0.14804561     -0.14086932     -0.67170059      14       0       0      -1      30     -0.22988661     -0.10014226     -0.55153590
 Si              3.98038392      0.35033078     12.70882473     -0.00937004     -0.04908770      0.46841767      14      -1       0      -1      30     -0.27861820     -0.37781456      0.53746515
 Si              0.87283440      3.37930362      1.77391915      0.30601708     -0.05951895      0.21746379      14       0      -1       0      34      0.30250815      0.04605396      0.02480132
 Si              3.53692542      1.46583451      2.19215550      0.13035598     -0.15166720      0.12178552      14      -1       0       0      35      0.21567926     -0.09586639      0.27712016
 Si              2.15386164      0.55276184      3.92528337      0.06155990     -0.07783198     -0.63537966      14       0       0       0      36      0.01457532     -0.01523698     -0.44882893
 Si              0.82868038      1.72614262      5.46489077     -0.01787177      0.19598865     -0.29498024      14       0      -1       0      31     -0.23623307      0.03208458     -0.13426029
 Si              3.52621997      0.89042433      7.79354335      0.01141400      0.13605153      0.55896679      14      -1       0      -1      29     -0.20629733      0.45239365      0.19437373
 Si              1.99554814      2.74857735      7.26820108      0.04166545      0.02304160      0.42148189      14       0      -1      -1      28      0.12122354     -0.24959376      0.39651463
 Si              2.46307589      2.30932442     12.52312370     -0.21718659      0.38549642      0.19103794      14       0      -1      -1      32     -0.01620590      0.34151925     -0.02651798
 Si              3.40362807      3.45725900      5.30344207     -0.15853839     -0.26160305     -0.37709310      14      -1      -1       0      33      0.31325484     -0.03339748     -0.26913189
 10
 REF_virial="47.92331766      -0.00000003       0.00000003      -0.00000003      23.27278076       0.00000000       0.00000003       0.00000000      23.27278076" REF_energy=-44.96545070 config_type=bulk gap_rss_group=RSS energy=-44.965450259566708 cutoff=5.00000000 nneightol=1.20000000 pbc="T T T" Lattice="3.30744648      -0.00000000       0.00000000      -0.00000001       6.91054233       0.00000000       0.00000001       0.00000000       6.91054233" Properties=species:S:1:pos:R:3:REF_forces:R:3:Z:I:1:map_shift:I:3:n_neighb:I:1:force:R:3
 Si              1.39276747      2.12602413      4.51335467      0.71225340     -0.57706029      0.20574536      14       0       0      -1      44      0.87920664     -0.68754175      0.21425823
 Si              1.39276746      4.78451820      2.39718766      0.71225339      0.57706029     -0.20574536      14       0      -1       0      44      0.87920673      0.68754182     -0.21425830
 Si              1.91467901      2.39718766      2.12602413     -0.71225339     -0.20574536     -0.57706029      14      -1       0       0      44     -0.87920657     -0.21425819     -0.68754170
 Si              1.91467901      4.51335467      4.78451820     -0.71225339      0.20574536      0.57706029      14      -1      -1      -1      44     -0.87920672      0.21425828      0.68754180
 Si              0.26095577      5.58129530      5.85245883     -0.71225339     -0.57706029     -0.20574536      14       0      -1      -1      44     -0.87920672     -0.68754182     -0.21425830
 Si              0.26095577      1.32924703      1.05808350     -0.71225339      0.57706029      0.20574536      14       0       0       0      44     -0.87920670      0.68754183      0.21425830
 Si              3.04649070      5.85245883      1.32924703      0.71225340     -0.20574536      0.57706029      14      -1      -1       0      44      0.87920671     -0.21425831      0.68754183
 Si              3.04649071      1.05808350      5.58129530      0.71225339      0.20574536     -0.57706029      14      -1       0      -1      44      0.87920678      0.21425837     -0.68754189
 Si              1.65372324      0.00000000      0.00000000      0.00000000      0.00000000      0.00000000      14      -1       0       0      46     -0.00000007     -0.00000006      0.00000007
 Si              0.00000000      3.45527117      3.45527117      0.00000000      0.00000000     -0.00000000      14       0      -1      -1      46     -0.00000007     -0.00000017     -0.00000003
 12
 REF_virial="4.61089890       2.25266357       1.42215418       2.25266357       0.99739004       0.10819334       1.42215418       0.10819334       2.01483872" REF_energy=-53.27588407 config_type=bulk gap_rss_group=RSS energy=-53.275885211442485 cutoff=5.00000000 nneightol=1.20000000 pbc="T T T" Lattice="7.44576406      -5.68807045       2.79902739      -2.37489245      10.39195149      -2.83051654      -3.05916873       0.62158018       5.15436842" Properties=species:S:1:pos:R:3:REF_forces:R:3:Z:I:1:map_shift:I:3:n_neighb:I:1:force:R:3
 Si              1.89983263      5.60403608     -0.83795992      0.67221819      0.67746552     -1.38337514      14      -1      -1       0      18      0.84508284      0.64742575     -1.59415167
 Si              0.44950362      4.60542196      1.97750987     -0.67263488     -0.67030562      1.38233731      14       0      -1       0      18     -0.85800666     -0.64365078      1.57387564
 Si              2.64895246      5.38802504      1.46010621      1.01043203      0.03243984      0.64882345      14      -1      -1       0      20      0.86781673      0.07358620      0.57651656
 Si             -0.30260098      4.82603284     -0.31659694     -0.99585865     -0.05617268     -0.64257070      14       0      -1       0      20     -0.84047752     -0.05972445     -0.56458351
 Si              2.17687773      0.85172501      5.19080192      1.25815986      0.44505440      0.74368684      14      -1       0      -1      18      1.47302541      0.51990157      0.48565398
 Si             -0.50237984     -0.41251860      3.91426975     -1.27147798     -0.42795414     -0.74394295      14       0       0      -1      18     -1.50346657     -0.50707722     -0.46159578
 Si              0.74201275      1.53434256      3.41741422     -0.34702631      1.27952766     -0.64629233      14       0       0      -1      15     -0.39514611      1.12723325     -0.53458776
 Si              0.93432608     -1.09722061      5.68696704      0.33823362     -1.26581974      0.65544042      14      -1       0      -1      15      0.39863106     -1.11974392      0.48290574
 Si              2.92467281      0.46883647      0.56570013     -0.71675885      0.87121655      0.46466966      14       0       0       0      20     -0.88265543      0.55487174      0.61970031
 Si              1.68487834      3.52282284      0.25929636      0.36594845     -1.26837441      0.04881366      14       0      -1       0      16      0.26534075     -1.30268974      0.01652976