 24
 REF_virial="2.76493290      -0.89020105       0.71775005      -0.89020105       0.55232325       1.22843026       0.71775005       1.22843026       3.62807020" REF_energy=-117.87298620 config_type=bulk gap_rss_group=RSS energy=-117.00574538594456 cutoff=5.00000000 nneightol=1.20000000 pbc="T T T" Lattice="8.12524846      -0.30866347      -0.19433248      -0.40912969       7.65689065      -0.11071315      -0.27042563      -0.58903666       7.32310065" Properties=species:S:1:pos:R:3:REF_forces:R:3:Z:I:1:map_shift:I:3:n_neighb:I:1:force:R:3
 Si             -0.24822333      6.99519828      2.57176557      0.37387662      0.16752876     -0.27560715      14       0      -1       0      33      0.14602089     -0.12293866      0.18233279
 Si              0.18911967      4.81749094      0.72308850     -0.06687753      0.14359432     -0.03088354      14       0      -1       0      33     -0.25271389     -0.29145752     -0.13848370
 Si              7.80048530      0.19985411      4.53020121     -0.03524838     -0.20857078      0.08467891      14      -1       0      -1      35     -0.19642063      0.48436553      0.02217467
 Si              0.08307400      2.24040281      6.66156153      0.02927507      0.20826972      0.34343211      14       0       0      -1      36      0.07955440      0.14476408      0.13037339
 Si              2.43568470      5.77836227      0.57741197     -0.23873693      0.10284598     -0.06178493      14       0      -1       0      37      0.54354239      0.26347059      0.55394938
 Si              5.55735357      6.21803441      1.92005356     -0.04500430     -0.00176864      0.03239806      14      -1      -1       0      34     -0.00395290     -0.08833565      0.32248667
 Si              1.18219532      2.66559655      4.58551628      0.11149783      0.11260955     -0.31138252      14       0       0      -1      38      0.11477942      0.17049213     -0.27103590
 Si              6.55498874      2.31727332      4.03367813     -0.08169219      0.06019535     -0.03755093      14      -1       0      -1      38     -0.05422652      0.35862684      0.12060669
 Si              0.53787673      6.33577716      6.54609816      0.29058916      0.40323678      0.20483922      14       0      -1      -1      35     -0.00619952      0.43331569      0.15308454
 Si              6.12678231      0.38200709      0.32047449      0.28573469     -0.07806565      0.00869516      14      -1       0       0      33      0.04118499      0.40470067     -0.25060246
 Si              0.76633553      5.05095178      4.45714597      0.29953142      0.02732331      0.19824425      14       0      -1      -1      34     -0.70329674     -1.22595532     -0.24770602
 Si              5.81610741      2.53411185      1.54455013     -0.33470456     -0.26013179      0.39666280      14      -1       0       0      33     -0.11621652      0.38937546      0.06077966
 Si              2.17799611      0.18444077      5.18294475     -0.03548220      0.11195145     -0.22525153      14       0       0      -1      33     -0.15972201      0.20103066     -0.27352264
 Si              5.77225136      1.87526473      6.31038865     -0.51541232     -0.08001306     -0.06669736      14      -1       0      -1      36      0.05779734     -0.24350285      0.30891479
 Si              2.07581123      6.35071857      2.94336803      0.10059324     -0.16158013      0.05254463      14       0      -1       0      33      0.31604496     -0.30514059     -0.39490005
 Si              5.80688182      4.59129414      0.21898493      0.22681507     -0.05004179      0.05618281      14      -1      -1       0      34     -0.23994793     -0.23498546      0.32357822
 Si              0.10798037      3.01254439      2.34229475      0.22113614     -0.23095138      0.01911617      14       0       0       0      33      0.28568092     -0.16203197     -0.19935293
 Si              6.55699479      4.75476321      3.78563560     -0.00752164     -0.29695045     -0.06625199      14      -1      -1      -1      37      0.04636780     -0.33153309     -0.18317867
 Si              0.39334785      1.00242127      0.90182023     -0.33165967     -0.28318349     -0.14740815      14       0       0       0      35      0.35155086     -0.04483346      0.21808330
 Si              5.49240694      6.12086789      5.42260425     -0.28607966      0.58266019      0.17752512      14      -1      -1      -1      39     -0.15790403      0.25123466      0.10602873
 Si              4.33173970      1.77232398      3.28051436     -0.05377787     -0.01457311     -0.04671871      14      -1       0       0      37     -0.34910675     -0.22216093     -0.53712176
 Si              3.42965113      2.33463062      5.46162553      0.23954650     -0.12857978     -0.41016329      14       0       0      -1      34      0.57785377      0.11292978     -0.24047335
 Si              4.18225806      7.11551986      3.65720440     -0.00829585      0.10853388     -0.15135954      14      -1      -1      -1      37     -0.02278798      0.40018058     -0.24098442
 Si              3.68134483      4.63379913      6.13400585     -0.13810264     -0.23433925      0.25674041      14      -1      -1      -1      31     -0.29788233     -0.34161119      0.47496907
 6
 REF_virial="-2.46248367      -0.00000000       0.00000000      -0.00000000      -2.46248367       0.00000000       0.00000000       0.00000000      -5.68662457" REF_energy=-29.84327961 config_type=bulk gap_rss_group=RSS energy=-29.514470590893069 cutoff=5.00000000 nneightol=1.20000000 pbc="T T T" Lattice="7.15010967      -0.00000000       0.00000000      -3.57505483       6.19217662      -0.00000000       0.00000000       0.00000000       2.84060438" Properties=species:S:1:pos:R:3:REF_forces:R:3:Z:I:1:map_shift:I:3:n_neighb:I:1:force:R:3
 Si              2.38268593      4.12811727      0.23362210      0.01112289      0.00000000      0.00000000      14      -1      -1       0      32      0.01072427      0.00000747     -0.00000000
 Si             -1.19134255      6.19158452      0.23362210     -0.00556145      0.00963271     -0.00000000      14       0      -1       0      32     -0.00536861      0.00928378     -0.00000000
 Si             -1.19134337      2.06465144      0.23362210     -0.00556145     -0.00963271      0.00000000      14       0       0       0      32     -0.00535569     -0.00929129     -0.00000000
 Si              1.19134337      2.06465144      0.23362210      0.00556145     -0.00963271     -0.00000000      14       0       0       0      32      0.00535571     -0.00929126      0.00000000
 Si             -2.38268592      4.12811727      0.23362210     -0.01112289      0.00000000      0.00000000      14       0      -1       0      32     -0.01072429      0.00000750      0.00000000
 Si              1.19134256      6.19158452      0.23362210      0.00556145      0.00963271      0.00000000      14      -1      -1       0      32      0.00536861      0.00928379     -0.00000000
