1
Lattice="20.0 0.0 0.0 0.0 20.0 0.0 0.0 0.0 20.0" Properties=species:S:1:pos:R:3:REF_forces:R:3:forces:R:3 REF_virial="-0.0006448727228862582 -0.0 -0.0 -0.0 -0.0006448727228862582 -0.0 -0.0 -0.0 -0.0006448727228862582" REF_energy=-0.27567309 config_type=IsolatedAtom data_type=iso_atoms "max RMSE"=0.0 "avg RMSE"=0.0 RMSE="_JSON [0.0]" pbc="T T T"
Cl      10.00000000      10.00000000      10.00000000      -0.00000000       0.00000000       0.00000000      -0.00000000       0.00000000       0.00000000
1
Lattice="20.0 0.0 0.0 0.0 20.0 0.0 0.0 0.0 20.0" Properties=species:S:1:pos:R:3:REF_forces:R:3:forces:R:3 REF_virial="-0.02475762003080154 -0.0 -0.0 -0.0 -0.02475762003080154 -0.0 -0.0 -0.0 -0.02475762003080154" REF_energy=-0.28663766 config_type=IsolatedAtom data_type=iso_atoms "max RMSE"=0 "avg RMSE"=0 RMSE="_JSON []" pbc="T T T"
Li      10.00000000      10.00000000      10.00000000       0.00000000       0.00000000      -0.00000000       0.00000000       0.00000000      -0.00000000
64
Lattice="9.91427712 0.0 0.0 0.0 9.91427712 0.0 0.0 0.0 9.91427712" Properties=species:S:1:pos:R:3:REF_forces:R:3:forces:R:3 REF_virial="15.319484810972632 0.0033108707180367 0.0045619653846587956 0.0033108707180367 15.309640825018802 -0.0010515564656555802 0.0045619653846587956 -0.0010515564656555802 15.323346501037118" REF_energy=-243.90847635 config_type=test data_type=rand_struc "max RMSE"=0.012155107371198605 "avg RMSE"=0.006405346578078474 RMSE="_JSON [0.001586520112373829, 0.007283683685063949, 0.004747576418918043, 0.0038921619730513087, 0.006387078845888786, 0.00661580612456008, 0.006927043010936679, 0.011583714201505778, 0.007077775808086415, 0.0062437232152672125, 0.009031556212231643, 0.0071718718518505795, 0.004582161091137382, 0.005072545828368631, 0.0022934063343710686, 0.0031228938764976738, 0.012155107371198605, 0.008229683001610694, 0.0028655583684161763, 0.0015727217158586337, 0.009453584264905385, 0.005342109196063546, 0.006907029198396371, 0.009678314876922877, 0.008359772342414595, 0.007585902192132454, 0.002432112805696586, 0.004765087533652101, 0.008285890858053022, 0.007994001973498631, 0.007477815181403812, 0.008246881028178674]" pbc="T T T"
Li       0.01448238       9.89669465       9.90569641      -0.03271956       0.04525130       0.04435419      -0.03271956       0.04525130       0.04435419
Li       4.96332081       0.00491639       9.90916542       0.00092354      -0.02342566       0.01728165       0.00092354      -0.02342566       0.01728165
Li       0.00533150       4.97999533       9.90402596       0.00639067      -0.05105727       0.01869917       0.00639067      -0.05105727       0.01869917
Li       4.96260123       4.95575235       0.00253716      -0.01711042       0.01524783      -0.00788185      -0.01711042       0.01524783      -0.00788185
Li       9.91386469       9.90039227       4.95658812      -0.00232238       0.04489079       0.00422954      -0.00232238       0.04489079       0.00422954
Li       4.94847903       9.90329944       4.95818640       0.02338293       0.03702372      -0.00085562       0.02338293       0.03702372      -0.00085562
Li       9.89995773       4.95370911       4.96679437       0.03235020      -0.01484770      -0.02379900       0.03235020      -0.01484770      -0.02379900
Li       4.94324717       4.97011109       4.95294165       0.03694197      -0.04634983      -0.00807465       0.03694197      -0.04634983      -0.00807465
Li       0.00581740       2.49020587       2.47718703      -0.00132607      -0.05361209       0.00382113      -0.00132607      -0.05361209       0.00382113
Li       4.95126167       2.48743750       2.47529202       0.01186504      -0.02643365       0.02018680       0.01186504      -0.02643365       0.02018680
Li       0.01687945       7.42226953       2.48033283      -0.05818730       0.02243418       0.00660288      -0.05818730       0.02243418       0.00660288
Li       4.94413599       7.42898318       2.48806051       0.02929209       0.01129510      -0.02585523       0.02929209       0.01129510      -0.02585523
Li       9.90963288       2.48351997       7.45412976       0.01237664      -0.01135657      -0.02391117       0.01237664      -0.01135657      -0.02391117
Li       4.95253050       2.48557144       7.44068659       0.00956278      -0.00824937      -0.01836841       0.00956278      -0.00824937      -0.01836841
Li       9.90987845       7.43212056       7.42745728       0.01731370       0.02120060       0.03246429       0.01731370       0.02120060       0.03246429
Li       4.95982374       7.43130431       7.42293776      -0.01287148       0.02328475       0.05435438      -0.01287148       0.02328475       0.05435438
Li       2.49184886       9.90269675       2.45454778      -0.02995853       0.03744644       0.04309858      -0.02995853       0.03744644       0.04309858
Li       7.43344461       0.01210315       2.47670678       0.01906274      -0.02337466      -0.00251466       0.01906274      -0.02337466      -0.00251466
Li       2.48231618       4.94392798       2.47672027      -0.00651955       0.00197821      -0.01957774      -0.00651955       0.00197821      -0.01957774
Li       7.43370654       4.95421653       2.48097121       0.00153598       0.00659273      -0.00271946       0.00153598       0.00659273      -0.00271946
Li       2.48758770       9.90587368       7.42658809      -0.03231618       0.01455644       0.02079545      -0.03231618       0.01455644       0.02079545
Li       7.44468928       9.91151332       7.42041507      -0.02167614       0.01831150       0.02364787      -0.02167614       0.01831150       0.02364787
Li       2.49015738       4.96752307       7.43282060      -0.00827255      -0.01987804       0.00360855      -0.00827255      -0.01987804       0.00360855
Li       7.42807335       4.96480924       7.44998906       0.02046043      -0.01872470      -0.02110617       0.02046043      -0.01872470      -0.02110617
Li       2.49106633       2.47413700       9.89914724      -0.05060270       0.01122890       0.02974461      -0.05060270       0.01122890       0.02974461
Li       7.43658902       2.48145741       9.90072579       0.00673999      -0.03332926       0.03787966       0.00673999      -0.03332926       0.03787966
Li       2.46694866       7.43169682       0.01572930       0.03317147       0.00338132      -0.02797882       0.03317147       0.00338132      -0.02797882
Li       7.42279301       7.43218649       0.00892860       0.00958555       0.01260833       0.01393638       0.00958555       0.01260833       0.01393638
Li       2.47454617       2.47558290       4.96428745      -0.00085619      -0.00240978      -0.01963360      -0.00085619      -0.00240978      -0.01963360
Li       7.41953904       2.49659225       4.95557637       0.02377845      -0.05768778       0.00929156       0.02377845      -0.05768778       0.00929156
Li       2.48195263       7.42637157       4.94374745      -0.00031289       0.01890713       0.03988360      -0.00031289       0.01890713       0.03988360
Li       7.43501533       7.42230572       4.95663967       0.01355193       0.02668926      -0.00706981       0.01355193       0.02668926      -0.00706981
Cl       2.47213630       9.90756436       0.00068240       0.04210059       0.00821310      -0.00625445       0.04210059       0.00821310      -0.00625445
Cl       7.44356064       9.90144190       9.91058098      -0.04409376       0.05596804       0.01007984      -0.04409376       0.05596804       0.01007984
Cl       2.48391734       4.96664139       0.00051534      -0.02324529      -0.02849284      -0.00889780      -0.02324529      -0.02849284      -0.00889780
Cl       7.43616677       4.94938401       0.00159461       0.01269596       0.02394256       0.00014953       0.01269596       0.02394256       0.00014953
Cl       2.47882646       0.00887536       4.96636964      -0.00923628      -0.05000812      -0.03826307      -0.00923628      -0.05000812      -0.03826307
Cl       7.44058983       9.90685846       4.95374292      -0.02266854       0.00596819       0.04072339      -0.02266854       0.00596819       0.04072339
Cl       2.50943520       4.94880482       4.93730069      -0.11534773       0.03122041       0.06813994      -0.11534773       0.03122041       0.06813994
Cl       7.42444790       4.94500001       4.95983267       0.02630352       0.07278632       0.00638799       0.02630352       0.07278632       0.00638799
Cl       2.48049295       2.48660450       2.46717649      -0.00850675      -0.06161515       0.03546241      -0.00850675      -0.06161515       0.03546241
Cl       7.44457031       2.47694483       2.49082025      -0.04709024       0.00670862      -0.06671925      -0.04709024       0.00670862      -0.06671925
Cl       2.47220501       7.42947810       2.47727795       0.02623690       0.00540173       0.03360556       0.02623690       0.00540173       0.03360556
Cl       7.42032465       7.43885661       2.48463325       0.07012134      -0.04803849       0.00792868       0.07012134      -0.04803849       0.00792868
Cl       2.48149221       2.48855960       7.44323238      -0.01792212      -0.00822204      -0.03282283      -0.01792212      -0.00822204      -0.03282283
Cl       7.43935550       2.48160791       7.44205030      -0.03640643      -0.00235342      -0.01388904      -0.03640643      -0.00235342      -0.01388904
Cl       2.48000249       7.42555929       7.45477587       0.00472577       0.03222907      -0.07683243       0.00472577       0.03222907      -0.07683243
Cl       7.43583187       7.43857366       7.44609592      -0.00466713      -0.02024467      -0.03577102      -0.00466713      -0.02024467      -0.03577102
Cl       0.00100075       9.90106853       2.48540091       0.01919511       0.02927259      -0.01593268       0.01919511       0.02927259      -0.01593268
Cl       4.96093305       9.90572159       2.48464941      -0.02739141       0.03034581      -0.02222054      -0.02739141       0.03034581      -0.02222054
Cl       0.00206187       4.94169013       2.48078819      -0.01394215       0.07953862       0.01052792      -0.01394215       0.07953862       0.01052792
Cl       4.95260873       4.95586388       2.46591579       0.03581617       0.00473658       0.04303777       0.03581617       0.00473658       0.04303777
Cl       9.90991553       0.01231333       7.45997720       0.03606278      -0.05422860      -0.09584495       0.03606278      -0.05422860      -0.09584495
Cl       4.93771709       0.01900478       7.44077840       0.08235885      -0.07321631      -0.01102136       0.08235885      -0.07321631      -0.01102136
Cl       0.01150909       4.95570129       7.42737945      -0.03577149       0.02273152       0.01940499      -0.03577149       0.02273152       0.01940499
Cl       4.96294486       4.95520676       7.43110900      -0.00515941       0.01496222       0.02208650      -0.00515941       0.01496222       0.02208650
Cl       9.91325109       2.47262795       0.00454837       0.01120014       0.03993787      -0.00112024       0.01120014       0.03993787      -0.00112024
Cl       4.93839820       2.47633579       0.00963271       0.09162205       0.00456508      -0.02714976       0.09162205       0.00456508      -0.02714976
Cl       0.00071224       7.44376924       0.01077454      -0.02654379      -0.06647156      -0.03019290      -0.02654379      -0.06647156      -0.03019290
Cl       4.95810857       7.43640372       0.01694191      -0.01355597      -0.00108400      -0.06906418      -0.01355597      -0.00108400      -0.06906418
Cl       9.90391065       2.47378594       4.95820553       0.04358117       0.01720900       0.02334274       0.04358117       0.01720900       0.02334274
Cl       4.96004037       2.46824981       4.95095314      -0.01678107       0.03094919       0.02091382      -0.01678107       0.03094919       0.02091382
Cl       0.01347301       7.44366732       4.96766138      -0.03377607      -0.07096803      -0.01780880      -0.03377607      -0.07096803      -0.01780880
Cl       4.96274042       7.43927133       4.95972014      -0.03314888      -0.01333546       0.01348008      -0.03314888      -0.01333546       0.01348008
64
Lattice="10.42270159 0.0 0.0 0.0 10.42270159 0.0 0.0 0.0 10.42270159" Properties=species:S:1:pos:R:3:REF_forces:R:3:forces:R:3 REF_virial="-18.103834035138526 -0.0019932263746301614 0.0006956116238524942 -0.0019932263746301614 -18.093318273124314 -0.0022159264020852943 0.0006956116238524942 -0.0022159264020852943 -18.115369271844475" REF_energy=-243.63816253 config_type=test data_type=rand_struc "max RMSE"=0.01059073362396109 "avg RMSE"=0.006231332751940218 RMSE="_JSON [0.004291296465284898, 0.0072161226077305535, 0.008407611412297789, 0.006455188383112198, 0.007795918491300432, 0.01059073362396109, 0.004342411338714932, 0.00252883523867544, 0.008604191970723728, 0.0028015351671717413, 0.006363260742329098, 0.008919990929556301, 0.006370047698419011, 0.005457146420761801, 0.0066457322943224255, 0.006853945734171424, 0.0021544616503974545, 0.004555719047344045, 0.009267133739751104, 0.008179577814463695, 0.009733863352242692, 0.010194444544335574, 0.007652536845523843, 0.009199281198814756, 0.0036600958502112117, 0.007195581566954822, 0.005226306608102896, 0.007182621339671193, 0.003018086452069698, 0.0020250282550621367, 0.004009806094838004, 0.0025041351837710364]" pbc="T T T"
Li      10.40733801      10.41428682       0.01060062       0.03115830       0.00453354       0.00475949       0.03115830       0.00453354       0.00475949
Li       5.21144439       0.01673625       0.00586454      -0.02034712      -0.03571102      -0.00507890      -0.02034712      -0.03571102      -0.00507890
Li      10.42225466       5.21425373       0.00270042      -0.01132787      -0.00534047      -0.00120156      -0.01132787      -0.00534047      -0.00120156
Li       5.20148143       5.20347332      10.41257041       0.01124426       0.02276834       0.00909787       0.01124426       0.02276834       0.00909787
Li       0.00395771      10.41840431       5.20124901      -0.00710468      -0.02269139       0.00290056      -0.00710468      -0.02269139       0.00290056
Li       5.21863512      10.41713493       5.22301786       0.00192515      -0.00071459      -0.00676875       0.00192515      -0.00071459      -0.00676875
Li      10.41670249       5.18330424       5.22056947      -0.00848403       0.04617029      -0.00999436      -0.00848403       0.04617029      -0.00999436
Li       5.18715616       5.18783760       5.20962563       0.02997668       0.02308231      -0.00663302       0.02997668       0.02308231      -0.00663302
Li       0.01349563       2.61170608       2.60385382       0.00248760      -0.01217402      -0.00945654       0.00248760      -0.01217402      -0.00945654
Li       5.21951604       2.60405581       2.58727328      -0.01756206       0.01260367       0.03541386      -0.01756206       0.01260367       0.03541386
Li      10.41946107       7.80293095       2.60149308       0.00098518       0.01635418       0.02190841       0.00098518       0.01635418       0.02190841
Li       5.21504356       7.82577313       2.60639936      -0.00126970      -0.02120356       0.00803603      -0.00126970      -0.02120356       0.00803603
Li       0.01577955       2.60286815       7.81267597      -0.00971888       0.00367562       0.01415070      -0.00971888       0.00367562       0.01415070
Li       5.23182776       2.60701044       7.82535987      -0.01908898       0.00439756      -0.03052868      -0.01908898       0.00439756      -0.03052868
Li       0.01687613       7.83201331       7.82771394      -0.03365116      -0.01018313      -0.02894459      -0.03365116      -0.01018313      -0.02894459
Li       5.21299727       7.82770383       7.82640350       0.01584503      -0.01373226      -0.02469455       0.01584503      -0.01373226      -0.02469455
Li       2.60474475      10.40193165       2.62838771      -0.00302267       0.00676363      -0.02239620      -0.00302267       0.00676363      -0.02239620
Li       7.81148246       0.02250147       2.59797531       0.01292782      -0.03339711       0.02798762       0.01292782      -0.03339711       0.02798762
Li       2.59923594       5.21286240       2.61135911       0.01798880      -0.00003152      -0.00395361       0.01798880      -0.00003152      -0.00395361
Li       7.81821344       5.20891907       2.60702097      -0.01411584       0.01749932       0.00562087      -0.01411584       0.01749932       0.00562087
Li       2.59900987      10.41369398       7.82811376       0.00719162       0.01077502      -0.00493369       0.00719162       0.01077502      -0.00493369
Li       7.82157695      10.42240506       7.81773514      -0.00169071      -0.01368896      -0.01573514      -0.00169071      -0.01368896      -0.01573514
Li       2.59962981       5.20923634       7.81319345       0.00997156      -0.00055993      -0.00639976       0.00997156      -0.00055993      -0.00639976
Li       7.82059993       5.20489477       7.81420008      -0.01030229       0.02576869      -0.00448375      -0.01030229       0.02576869      -0.00448375
Li       2.61498527       2.61122215      10.41033912      -0.02351508      -0.01685784       0.01989662      -0.02351508      -0.01685784       0.01989662
Li       7.82930622       2.59211838      10.41716213       0.00508613       0.02394565       0.00599286       0.00508613       0.02394565       0.00599286
Li       2.61587495       7.79735386      10.39177504      -0.00335767       0.02852762       0.03678682      -0.00335767       0.02852762       0.03678682
Li       7.81340066       7.81384873      10.41739998      -0.00238207      -0.00957380       0.00386505      -0.00238207      -0.00957380       0.00386505
Li       2.60186131       2.59877348       5.21536635       0.02483795       0.00389197      -0.01599204       0.02483795       0.00389197      -0.01599204
Li       7.83367969       2.60749624       5.21555854      -0.03098264       0.00249802      -0.00539916      -0.03098264       0.00249802      -0.00539916
Li       2.60859990       7.80369337       5.21338645      -0.00089687       0.01145255      -0.02330325      -0.00089687       0.01145255      -0.02330325
Li       7.81530645       7.81936932       5.21235533       0.00638360      -0.00329389      -0.00133761       0.00638360      -0.00329389      -0.00133761
Cl       2.60167318      10.39405876       0.00954813       0.00425747       0.04936127      -0.02976317       0.00425747       0.04936127      -0.02976317
Cl       7.82119715      10.42024673       0.00012236      -0.01339646       0.02493345       0.00362378      -0.01339646       0.02493345       0.00362378
Cl       2.59919112       5.22309645      10.40856768      -0.00180838      -0.00971979      -0.00707996      -0.00180838      -0.00971979      -0.00707996
Cl       7.81334239       5.22315992      10.41919717      -0.01034218      -0.04126420       0.01274308      -0.01034218      -0.04126420       0.01274308
Cl       2.61201907       0.00097390       5.21419254      -0.00399703       0.02597270      -0.00956041      -0.00399703       0.02597270      -0.00956041
Cl       7.83030940       0.00288886       5.23284689      -0.02705888       0.01940445      -0.03027176      -0.02705888       0.01940445      -0.03027176
Cl       2.62490080       5.21159344       5.21021410      -0.06940301      -0.01210988       0.00782471      -0.06940301      -0.01210988       0.00782471
Cl       7.81831829       5.23414462       5.20758215       0.00691174      -0.06198972       0.00517818       0.00691174      -0.06198972       0.00517818
Cl       2.60194209       2.61993261       2.59536088       0.01598102      -0.04065550       0.01068177       0.01598102      -0.04065550       0.01068177
Cl       7.81219464       2.60488442       2.62509977       0.00508103      -0.00619374      -0.05821246       0.00508103      -0.00619374      -0.05821246
Cl       2.62163464       7.81575963       2.60968897      -0.03259319      -0.01795145      -0.00555955      -0.03259319      -0.01795145      -0.00555955
Cl       7.81885611       7.82550204       2.61632385      -0.01310157      -0.01484830      -0.04067064      -0.01310157      -0.01484830      -0.04067064
Cl       2.59924730       2.61641901       7.81316813      -0.00090352      -0.02607304       0.01035072      -0.00090352      -0.02607304       0.01035072
Cl       7.80840318       2.61114836       7.82182970       0.02438258      -0.00502336       0.00344938       0.02438258      -0.00502336       0.00344938
Cl       2.60058922       7.83337451       7.78171033      -0.01069921      -0.03761351       0.06863831      -0.01069921      -0.03761351       0.06863831
Cl       7.82609842       7.82218230       7.81064667      -0.01517901       0.00164052       0.02995113      -0.01517901       0.00164052       0.02995113
Cl       0.00774334      10.41138994       2.61793124      -0.01625954       0.03753251      -0.01896764      -0.01625954       0.03753251      -0.01896764
Cl       5.22108695      10.41091716       2.60648701      -0.00667969       0.03602818      -0.00788111      -0.00667969       0.03602818      -0.00788111
Cl       0.00284404       5.19009891       2.59507353      -0.00440358       0.04691573       0.01723681      -0.00440358       0.04691573       0.01723681
Cl       5.19878070       5.20480190       2.59721842       0.03039442       0.00231343      -0.01725039       0.03039442       0.00231343      -0.01725039
Cl       0.00369568       0.00485510       7.81216828       0.00246101       0.01196963       0.02179715       0.00246101       0.01196963       0.02179715
Cl       5.21153194       0.00108511       7.81865026      -0.00204421       0.01031745       0.00485620      -0.00204421       0.01031745       0.00485620
Cl      10.40742472       5.21085040       7.82202857       0.04062081      -0.00161877      -0.01356553       0.04062081      -0.00161877      -0.01356553
Cl       5.19965152       5.21011570       7.80734840       0.01771098      -0.00441281       0.02946933       0.01771098      -0.00441281       0.02946933
Cl       0.00411134       2.61035196       0.00631595      -0.01877479      -0.02553319      -0.01988609      -0.01877479      -0.02553319      -0.01988609
Cl       5.20069473       2.59087068      10.41936851       0.02229521       0.02139501       0.00049465       0.02229521       0.02139501       0.00049465
Cl      10.40281799       7.82548911       0.01841097       0.04480831      -0.02371146      -0.04590308       0.04480831      -0.02371146      -0.04590308
Cl       5.19636764       7.80376330      10.39973652       0.03392715       0.02545983       0.02219216       0.03392715       0.02545983       0.02219216
Cl      10.41490312       2.61385878       5.19507366       0.02584271      -0.00544391       0.04546173       0.02584271      -0.00544391       0.04546173
Cl       5.21375719       2.62000432       5.20728928      -0.00059903      -0.04547593       0.01007702      -0.00059903      -0.04547593       0.01007702
Cl      10.42019754       7.81729895       5.20425012       0.02749224      -0.01920374       0.00752547       0.02749224      -0.01920374       0.00752547
Cl       5.21989022       7.81360557       5.20331104      -0.01411276       0.02004362       0.02383865      -0.01411276       0.02004362       0.02383865
64
Lattice="10.16848936 0.0 0.0 0.0 10.16848936 0.0 0.0 0.0 10.16848936" Properties=species:S:1:pos:R:3:REF_forces:R:3:forces:R:3 REF_virial="-3.0724933241539496 -0.001031469070673776 0.0013636154986104252 -0.001031469070673776 -3.096405406086768 0.00302804223739527 0.0013636154986104252 0.00302804223739527 -3.097054402121139" REF_energy=-244.39678685 config_type=test data_type=rand_struc "max RMSE"=0.006466511699767764 "avg RMSE"=0.0032611030683419575 RMSE="_JSON [0.003522757293598296, 0.0015532697027131716, 0.0035328013652482643, 0.004699631409788078, 0.004382188039834286, 0.005051824720771693, 0.002741175437277469, 0.003613307127097465, 0.0007734747047145963, 0.002625489955398802, 0.0044486538410549925, 0.0028099441598840834, 0.002793806970527253, 0.0043352657268499704, 0.006466511699767764, 0.0037779255209969397, 0.003649993401610476, 0.0008065112984122822, 0.002354317562819424, 0.003313545562430069, 0.004826487166362995, 0.002565714633761909, 0.0025201703243299517, 0.003844089736300824, 0.0017314196074801357, 0.003002621397851107, 0.0016762957557165537, 0.000941952468528358, 0.0042745054317780435, 0.005294360950716023, 0.003581453186477986, 0.0028438320268433554]" pbc="T T T"
Li      10.15884699       0.00704209       0.00725074       0.02148679      -0.01091882      -0.01891965       0.02148679      -0.01091882      -0.01891965
Li       5.07870916      10.16652440       0.00013829      -0.01489042       0.00457430      -0.01854037      -0.01489042       0.00457430      -0.01854037
Li      10.15269780       5.09364636       0.00274427       0.00383468      -0.00696121      -0.00536161       0.00383468      -0.00696121      -0.00536161
Li       5.08140198       5.10512272      10.15133532      -0.00140003      -0.01978969       0.02326251      -0.00140003      -0.01978969       0.02326251
Li      10.16564106      10.16781539       5.08890042       0.01655723       0.00376538       0.00565490       0.01655723       0.00376538       0.00565490
Li       5.10760709      10.15851336       5.08754293      -0.04717900       0.01484785      -0.00307826      -0.04717900       0.01484785      -0.00307826
Li       0.00298140       5.07597770       5.07481066      -0.01199582       0.00845832      -0.00160931      -0.01199582       0.00845832      -0.00160931
Li       5.07822412       5.08542768       5.09506050       0.02573712      -0.00359847      -0.02526098       0.02573712      -0.00359847      -0.02526098
Li       0.01598822       2.54486824       2.53858869      -0.03507238      -0.00340883       0.00103593      -0.03507238      -0.00340883       0.00103593
Li       5.06499563       2.55896634       2.52773372       0.02624772      -0.00377968       0.02069438       0.02624772      -0.00377968       0.02069438
Li      10.14934474       7.61305006       2.54811707       0.01184241       0.01998025      -0.01359888       0.01184241       0.01998025      -0.01359888
Li       5.08648449       7.62053895       2.53545954      -0.00702980       0.00204903       0.00565799      -0.00702980       0.00204903       0.00565799
Li       0.00449356       2.56570063       7.63000805       0.00268648      -0.04033511      -0.01095645       0.00268648      -0.04033511      -0.01095645
Li       5.09230575       2.55661671       7.62225254      -0.02355761      -0.02466761      -0.00157850      -0.02355761      -0.02466761      -0.00157850
Li      10.15276237       7.62841211       7.62005595       0.01908582       0.01729419       0.01071546       0.01908582       0.01729419       0.01071546
Li       5.06300372       7.62955911       7.60807920       0.02054367       0.00416543       0.02218382       0.02054367       0.00416543       0.02218382
Li       2.54626925      10.16388009       2.54421105      -0.01564654      -0.00703707       0.00309867      -0.01564654      -0.00703707       0.00309867
Li       7.62796022       0.00228984       2.53557495      -0.01582809      -0.00595874       0.01656193      -0.01582809      -0.00595874       0.01656193
Li       2.54890706       5.07782053       2.53645666      -0.00607355       0.01968796      -0.00876102      -0.00607355       0.01968796      -0.00876102
Li       7.63353143       5.07318096       2.53386888      -0.02780434       0.01125574       0.00706557      -0.02780434       0.01125574       0.00706557
Li       2.54439286      10.15393368       7.63383303      -0.00656268       0.03083937      -0.00996144      -0.00656268       0.03083937      -0.00996144
Li       7.62132731      10.16459747       7.62914739       0.00174153       0.00532560      -0.00295403       0.00174153       0.00532560      -0.00295403
Li       2.52951728       5.08769627       7.60373715       0.01865079      -0.00565391       0.02557750       0.01865079      -0.00565391       0.02557750
Li       7.62281954       5.08713416       7.61805143      -0.00530963      -0.00548458       0.00316021      -0.00530963      -0.00548458       0.00316021
Li       2.54700454       2.55878321       0.00319402      -0.01421405      -0.02454450      -0.02281309      -0.01421405      -0.02454450      -0.02281309
Li       7.60287659       2.53244743       0.02222700       0.02009253       0.02491373      -0.02509314       0.02009253       0.02491373      -0.02509314
Li       2.55764810       7.62389953       0.00611472      -0.02750250       0.00489735      -0.00538768      -0.02750250       0.00489735      -0.00538768
Li       7.64373144       7.64627387       0.00468696      -0.02762612      -0.03971733      -0.00351788      -0.02762612      -0.03971733      -0.00351788
Li       2.54727563       2.54360857       5.08392702       0.00156417      -0.01707944       0.02294042       0.00156417      -0.01707944       0.02294042
Li       7.60844099       2.53194317       5.09217529       0.01441615       0.02406798      -0.00966958       0.01441615       0.02406798      -0.00966958
Li       2.53205218       7.63243080       5.07671471       0.01348365       0.00861239       0.00997954       0.01348365       0.00861239       0.00997954
Li       7.62593740       7.62975913       5.09736854      -0.00713933      -0.01670848      -0.02192216      -0.00713933      -0.01670848      -0.02192216
Cl       2.54095856      10.16235207      10.15655928      -0.01122030       0.02849918       0.06163891      -0.01122030       0.02849918       0.06163891
Cl       7.61841323      10.16773496       0.00707656      -0.00915358       0.00696205      -0.01898190      -0.00915358       0.00696205      -0.01898190