 1
 REF_virial="-0.00064487      -0.00000000      -0.00000000      -0.00000000      -0.00064487      -0.00000000      -0.00000000      -0.00000000      -0.00064487" REF_energy=-0.27567309 config_type=IsolatedAtom data_type=iso_atoms energy=-.27567309000000001 cutoff=5.00000000 nneightol=1.20000000 pbc="T T T" Lattice="20.00000000       0.00000000       0.00000000       0.00000000      20.00000000       0.00000000       0.00000000       0.00000000      20.00000000" Properties=species:S:1:pos:R:3:REF_forces:R:3:Z:I:1:map_shift:I:3:n_neighb:I:1:force:R:3
 Cl             10.00000000     10.00000000     10.00000000     -0.00000000      0.00000000      0.00000000      17      -1      -1      -1       0      0.00000000      0.00000000      0.00000000
 1
 REF_virial="-0.02475762      -0.00000000      -0.00000000      -0.00000000      -0.02475762      -0.00000000      -0.00000000      -0.00000000      -0.02475762" REF_energy=-0.28663766 config_type=IsolatedAtom data_type=iso_atoms energy=-.28663766000000002 cutoff=5.00000000 nneightol=1.20000000 pbc="T T T" Lattice="20.00000000       0.00000000       0.00000000       0.00000000      20.00000000       0.00000000       0.00000000       0.00000000      20.00000000" Properties=species:S:1:pos:R:3:REF_forces:R:3:Z:I:1:map_shift:I:3:n_neighb:I:1:force:R:3
 Li             10.00000000     10.00000000     10.00000000      0.00000000      0.00000000     -0.00000000       3      -1      -1      -1       0      0.00000000      0.00000000      0.00000000
 64
 REF_virial="15.31948481       0.00331087       0.00456197       0.00331087      15.30964083      -0.00105156       0.00456197      -0.00105156      15.32334650" REF_energy=-243.90847635 config_type=test data_type=rand_struc energy=-243.90852690855743 cutoff=5.00000000 nneightol=1.20000000 pbc="T T T" Lattice="9.91427712       0.00000000       0.00000000       0.00000000       9.91427712       0.00000000       0.00000000       0.00000000       9.91427712" Properties=species:S:1:pos:R:3:REF_forces:R:3:Z:I:1:map_shift:I:3:n_neighb:I:1:force:R:3
 Li              0.01448238      9.89669465      9.90569641     -0.03271956      0.04525130      0.04435419       3       0      -1      -1      32     -0.04521137      0.03232735      0.04903122
 Li              4.96332081      0.00491639      9.90916542      0.00092354     -0.02342566      0.01728165       3      -1       0      -1      32     -0.00701028     -0.02430707      0.01596327
 Li              0.00533150      4.97999533      9.90402596      0.00639067     -0.05105727      0.01869917       3       0      -1      -1      32     -0.00298151     -0.04695027      0.01876444
 Li              4.96260123      4.95575235      0.00253716     -0.01711042      0.01524783     -0.00788185       3      -1       0       0      32     -0.01894708      0.01233693     -0.00627793
 Li              9.91386469      9.90039227      4.95658812     -0.00232238      0.04489079      0.00422954       3      -1      -1       0      32      0.00275146      0.04787303      0.01141185
 Li              4.94847903      9.90329944      4.95818640      0.02338293      0.03702372     -0.00085562       3       0      -1      -1      32      0.02829055      0.02993071      0.00373886
 Li              9.89995773      4.95370911      4.96679437      0.03235020     -0.01484770     -0.02379900       3      -1       0      -1      32      0.04469360     -0.00667084     -0.01405572
 Li              4.94324717      4.97011109      4.95294165      0.03694197     -0.04634983     -0.00807465       3       0      -1       0      32      0.05293641     -0.04229529     -0.00211122
 Li              0.00581740      2.49020587      2.47718703     -0.00132607     -0.05361209      0.00382113       3       0       0       0      32     -0.00098824     -0.05099289     -0.00225685
 Li              4.95126167      2.48743750      2.47529202      0.01186504     -0.02643365      0.02018680       3       0       0       0      32      0.01342585     -0.02893862      0.01887530
 Li              0.01687945      7.42226953      2.48033283     -0.05818730      0.02243418      0.00660288       3       0      -1       0      32     -0.05587648      0.01586186      0.02073607
 Li              4.94413599      7.42898318      2.48806051      0.02929209      0.01129510     -0.02585523       3       0      -1       0      32      0.02626666      0.00909991     -0.01463084
 Li              9.90963288      2.48351997      7.45412976      0.01237664     -0.01135657     -0.02391117       3      -1       0      -1      32      0.01609926     -0.00929201     -0.02955507
 Li              4.95253050      2.48557144      7.44068659      0.00956278     -0.00824937     -0.01836841       3       0       0      -1      32      0.01557313     -0.00750070     -0.01948732
 Li              9.90987845      7.43212056      7.42745728      0.01731370      0.02120060      0.03246429       3      -1      -1      -1      32      0.01731720      0.01927793      0.03655800
 Li              4.95982374      7.43130431      7.42293776     -0.01287148      0.02328475      0.05435438       3      -1      -1      -1      32     -0.00602764      0.02295978      0.05456079
 Li              2.49184886      9.90269675      2.45454778     -0.02995853      0.03744644      0.04309858       3       0      -1       0      32     -0.03090511      0.04657043      0.06337494
 Li              7.43344461      0.01210315      2.47670678      0.01906274     -0.02337466     -0.00251466       3      -1       0       0      32      0.01550010     -0.02856433      0.01284533
 Li              2.48231618      4.94392798      2.47672027     -0.00651955      0.00197821     -0.01957774       3       0       0       0      32     -0.01018846      0.00837925     -0.01502861
 Li              7.43370654      4.95421653      2.48097121      0.00153598      0.00659273     -0.00271946       3      -1       0       0      32      0.00512014     -0.00477525     -0.01029605
 Li              2.48758770      9.90587368      7.42658809     -0.03231618      0.01455644      0.02079545       3       0      -1      -1      32     -0.03940315      0.01123447      0.03896176
 Li              7.44468928      9.91151332      7.42041507     -0.02167614      0.01831150      0.02364787       3      -1      -1      -1      32     -0.02826876      0.01354007      0.03174565
 Li              2.49015738      4.96752307      7.43282060     -0.00827255     -0.01987804      0.00360855       3       0      -1      -1      32     -0.00762280     -0.01654077      0.00169329
 Li              7.42807335      4.96480924      7.44998906      0.02046043     -0.01872470     -0.02110617       3      -1      -1      -1      32      0.02044029     -0.01807228     -0.02543373
 Li              2.49106633      2.47413700      9.89914724     -0.05060270      0.01122890      0.02974461       3       0       0      -1      32     -0.05543727      0.01358099      0.02842276
 Li              7.43658902      2.48145741      9.90072579      0.00673999     -0.03332926      0.03787966       3      -1       0      -1      32      0.00069451     -0.03055378      0.04686695
 Li              2.46694866      7.43169682      0.01572930      0.03317147      0.00338132     -0.02797882       3       0      -1       0      32      0.04349270      0.00687273     -0.02653289
 Li              7.42279301      7.43218649      0.00892860      0.00958555      0.01260833      0.01393638       3      -1      -1       0      32      0.02158519      0.01374507      0.01287466
 Li              2.47454617      2.47558290      4.96428745     -0.00085619     -0.00240978     -0.01963360       3       0       0      -1      32      0.00289703     -0.00052056     -0.01155941
 Li              7.41953904      2.49659225      4.95557637      0.02377845     -0.05768778      0.00929156       3      -1       0       0      33      0.03064777     -0.05545784      0.02202257
 Li              2.48195263      7.42637157      4.94374745     -0.00031289      0.01890713      0.03988360       3       0      -1       0      32     -0.00793002      0.02126744      0.03545940
 Li              7.43501533      7.42230572      4.95663967      0.01355193      0.02668926     -0.00706981       3      -1      -1       0      32      0.01118624      0.01841857     -0.00762403
 Cl              2.47213630      9.90756436      0.00068240      0.04210059      0.00821310     -0.00625445      17       0      -1       0      32      0.04061567      0.00811354     -0.00856448
 Cl              7.44356064      9.90144190      9.91058098     -0.04409376      0.05596804      0.01007984      17      -1      -1      -1      32     -0.04237491      0.06817620      0.01275613
 Cl              2.48391734      4.96664139      0.00051534     -0.02324529     -0.02849284     -0.00889780      17       0      -1       0      32     -0.02703239     -0.03041464     -0.00185628
 Cl              7.43616677      4.94938401      0.00159461      0.01269596      0.02394256      0.00014953      17      -1       0       0      32      0.01163929      0.03000634      0.00289922
 Cl              2.47882646      0.00887536      4.96636964     -0.00923628     -0.05000812     -0.03826307      17       0       0      -1      32     -0.01418668     -0.04275084     -0.04498689
 Cl              7.44058983      9.90685846      4.95374292     -0.02266854      0.00596819      0.04072339      17      -1      -1       0      32     -0.02147449      0.01734747      0.04009657
 Cl              2.50943520      4.94880482      4.93730069     -0.11534773      0.03122041      0.06813994      17       0       0       0      33     -0.11188717      0.01976784      0.06904268
 Cl              7.42444790      4.94500001      4.95983267      0.02630352      0.07278632      0.00638799      17      -1       0      -1      32      0.00755998      0.07662425      0.00034669
 Cl              2.48049295      2.48660450      2.46717649     -0.00850675     -0.06161515      0.03546241      17       0       0       0      32     -0.01671444     -0.06930805      0.03059026
 Cl              7.44457031      2.47694483      2.49082025     -0.04709024      0.00670862     -0.06671925      17      -1       0       0      32     -0.04876524      0.00033527     -0.07529404
 Cl              2.47220501      7.42947810      2.47727795      0.02623690      0.00540173      0.03360556      17       0      -1       0      32      0.02991532      0.00491567      0.01840885
 Cl              7.42032465      7.43885661      2.48463325      0.07012134     -0.04803849      0.00792868      17      -1      -1       0      32      0.07758632     -0.04572600     -0.00172708
 Cl              2.48149221      2.48855960      7.44323238     -0.01792212     -0.00822204     -0.03282283      17       0       0      -1      32     -0.02529981     -0.00549667     -0.03175951
 Cl              7.43935550      2.48160791      7.44205030     -0.03640643     -0.00235342     -0.01388904      17      -1       0      -1      32     -0.03687122     -0.01000627     -0.01817973
 Cl              2.48000249      7.42555929      7.45477587      0.00472577      0.03222907     -0.07683243      17       0      -1      -1      32      0.00468991      0.02945755     -0.07967787
 Cl              7.43583187      7.43857366      7.44609592     -0.00466713     -0.02024467     -0.03577102      17      -1      -1      -1      32     -0.00659799     -0.01675815     -0.03942798
 Cl              0.00100075      9.90106853      2.48540091      0.01919511      0.02927259     -0.01593268      17       0      -1       0      32      0.01757167      0.04262535     -0.03212861
 Cl              4.96093305      9.90572159      2.48464941     -0.02739141      0.03034581     -0.02222054      17      -1      -1       0      32     -0.02738209      0.03886750     -0.03364699
 Cl              0.00206187      4.94169013      2.48078819     -0.01394215      0.07953862      0.01052792      17       0       0       0      32     -0.01691887      0.08305984      0.01236488
 Cl              4.95260873      4.95586388      2.46591579      0.03581617      0.00473658      0.04303777      17       0       0       0      32      0.03780321      0.00366723      0.04456372
 Cl              9.90991553      0.01231333      7.45997720      0.03606278     -0.05422860     -0.09584495      17      -1       0      -1      32      0.04476129     -0.04769763     -0.10808395
 Cl              4.93771709      0.01900478      7.44077840      0.08235885     -0.07321631     -0.01102136      17       0       0      -1      32      0.08905939     -0.07051301     -0.01680144
 Cl              0.01150909      4.95570129      7.42737945     -0.03577149      0.02273152      0.01940499      17       0       0      -1      32     -0.03912777      0.01128832      0.02035878
 Cl              4.96294486      4.95520676      7.43110900     -0.00515941      0.01496222      0.02208650      17      -1       0      -1      32     -0.01551980      0.00421050      0.02970701
 Cl              9.91325109      2.47262795      0.00454837      0.01120014      0.03993787     -0.00112024      17      -1       0       0      32      0.02286300      0.03144952      0.00013793
 Cl              4.93839820      2.47633579      0.00963271      0.09162205      0.00456508     -0.02714976      17       0       0       0      32      0.10185525     -0.00306175     -0.02402713
 Cl              0.00071224      7.44376924      0.01077454     -0.02654379     -0.06647156     -0.03019290      17       0      -1       0      32     -0.02668278     -0.06388198     -0.03351258
 Cl              4.95810857      7.43640372      0.01694191     -0.01355597     -0.00108400     -0.06906418      17      -1      -1       0      32     -0.01058326      0.00532718     -0.07332774
 Cl              9.90391065      2.47378594      4.95820553      0.04358117      0.01720900      0.02334274      17      -1       0      -1      32      0.04373936      0.00490731      0.01595279
 Cl              4.96004037      2.46824981      4.95095314     -0.01678107      0.03094919      0.02091382      17      -1       0       0      32     -0.01522985      0.02308077      0.00962693
 Cl              0.01347301      7.44366732      4.96766138     -0.03377607     -0.07096803     -0.01780880      17       0      -1      -1      32     -0.04005061     -0.06606633     -0.02802431
 Cl              4.96274042      7.43927133      4.95972014     -0.03314888     -0.01333546      0.01348008      17      -1      -1      -1      32     -0.03908026     -0.00339034      0.00511668
 64
 REF_virial="-18.10383404      -0.00199323       0.00069561      -0.00199323     -18.09331827      -0.00221593       0.00069561      -0.00221593     -18.11536927" REF_energy=-243.63816253 config_type=test data_type=rand_struc energy=-243.63812981326734 cutoff=5.00000000 nneightol=1.20000000 pbc="T T T" Lattice="10.42270159       0.00000000       0.00000000       0.00000000      10.42270159       0.00000000       0.00000000       0.00000000      10.42270159" Properties=species:S:1:pos:R:3:REF_forces:R:3:Z:I:1:map_shift:I:3:n_neighb:I:1:force:R:3
 Li             10.40733801     10.41428682      0.01060062      0.03115830      0.00453354      0.00475949       3      -1      -1       0      32      0.03355964      0.00837403      0.01314203
 Li              5.21144439      0.01673625      0.00586454     -0.02034712     -0.03571102     -0.00507890       3      -1       0       0      32     -0.01693958     -0.02958503     -0.00477101
 Li             10.42225466      5.21425373      0.00270042     -0.01132787     -0.00534047     -0.00120156       3      -1      -1       0      32     -0.01633932     -0.00381718     -0.00498388
 Li              5.20148143      5.20347332     10.41257041      0.01124426      0.02276834      0.00909787       3       0       0      -1      32      0.01181684      0.01800155      0.01424700
 Li              0.00395771     10.41840431      5.20124901     -0.00710468     -0.02269139      0.00290056       3       0      -1       0      32     -0.00954595     -0.00246227      0.00611839
 Li              5.21863512     10.41713493      5.22301786      0.00192515     -0.00071459     -0.00676875       3      -1      -1      -1      32     -0.01002329      0.01831333     -0.00765884
 Li             10.41670249      5.18330424      5.22056947     -0.00848403      0.04617029     -0.00999436       3      -1       0      -1      32     -0.00595650      0.05536372     -0.00709359
 Li              5.18715616      5.18783760      5.20962563      0.02997668      0.02308231     -0.00663302       3       0       0       0      32      0.03148789      0.02996015     -0.00060694
 Li              0.01349563      2.61170608      2.60385382      0.00248760     -0.01217402     -0.00945654       3       0       0       0      32      0.00038653     -0.00322495     -0.00924884
 Li              5.21951604      2.60405581      2.58727328     -0.01756206      0.01260367      0.03541386       3      -1       0       0      32     -0.02319967      0.00947862      0.03292078
 Li             10.41946107      7.80293095      2.60149308      0.00098518      0.01635418      0.02190841       3      -1      -1       0      32     -0.00060852      0.02334476      0.01334096
 Li              5.21504356      7.82577313      2.60639936     -0.00126970     -0.02120356      0.00803603       3      -1      -1       0      32     -0.00013947     -0.01552787     -0.00358719
 Li              0.01577955      2.60286815      7.81267597     -0.00971888      0.00367562      0.01415070       3       0       0      -1      32     -0.01667390     -0.00102067      0.02090833
 Li              5.23182776      2.60701044      7.82535987     -0.01908898      0.00439756     -0.03052868       3      -1       0      -1      32     -0.02946157      0.00232458     -0.02369120
 Li              0.01687613      7.83201331      7.82771394     -0.03365116     -0.01018313     -0.02894459       3       0      -1      -1      32     -0.03564892     -0.01454326     -0.02871765
 Li              5.21299727      7.82770383      7.82640350      0.01584503     -0.01373226     -0.02469455       3      -1      -1      -1      32      0.00701633     -0.01529097     -0.03043800
 Li              2.60474475     10.40193165      2.62838771     -0.00302267      0.00676363     -0.02239620       3       0      -1       0      32      0.00063542      0.01061249     -0.04349789
 Li              7.81148246      0.02250147      2.59797531      0.01292782     -0.03339711      0.02798762       3      -1       0       0      32      0.00944437     -0.03595305      0.02861068
 Li              2.59923594      5.21286240      2.61135911      0.01798880     -0.00003152     -0.00395361       3       0      -1       0      32      0.01771637      0.00542810     -0.01573816
 Li              7.81821344      5.20891907      2.60702097     -0.01411584      0.01749932      0.00562087       3      -1       0       0      32     -0.01572632      0.00547240     -0.00077026
 Li              2.59900987     10.41369398      7.82811376      0.00719162      0.01077502     -0.00493369       3       0      -1      -1      32      0.00382879      0.01274179     -0.02204827
 Li              7.82157695     10.42240506      7.81773514     -0.00169071     -0.01368896     -0.01573514       3      -1      -1      -1      32      0.00060669     -0.00176146     -0.01080055
 Li              2.59962981      5.20923634      7.81319345      0.00997156     -0.00055993     -0.00639976       3       0       0      -1      32      0.00727943     -0.00044975     -0.01447543
 Li              7.82059993      5.20489477      7.81420008     -0.01030229      0.02576869     -0.00448375       3      -1       0      -1      32     -0.00521288      0.03054685     -0.00083228
 Li              2.61498527      2.61122215     10.41033912     -0.02351508     -0.01685784      0.01989662       3       0       0      -1      32     -0.02913380     -0.01616132      0.02000298
 Li              7.82930622      2.59211838     10.41716213      0.00508613      0.02394565      0.00599286       3      -1       0      -1      32     -0.00421533      0.02289042      0.00253825
 Li              2.61587495      7.79735386     10.39177504     -0.00335767      0.02852762      0.03678682       3       0      -1      -1      32     -0.00175147      0.02901949      0.04697525
 Li              7.81340066      7.81384873     10.41739998     -0.00238207     -0.00957380      0.00386505       3      -1      -1      -1      32     -0.00363680     -0.00455557      0.00510884
 Li              2.60186131      2.59877348      5.21536635      0.02483795      0.00389197     -0.01599204       3       0       0      -1      32      0.02408267      0.00240634     -0.01046571
 Li              7.83367969      2.60749624      5.21555854     -0.03098264      0.00249802     -0.00539916       3      -1       0      -1      32     -0.03330132     -0.00673008     -0.00956997
 Li              2.60859990      7.80369337      5.21338645     -0.00089687      0.01145255     -0.02330325       3       0      -1      -1      32      0.00022717      0.01209474     -0.00350897
 Li              7.81530645      7.81936932      5.21235533      0.00638360     -0.00329389     -0.00133761       3      -1      -1      -1      32      0.00785067     -0.01490216      0.00207557
 Cl              2.60167318     10.39405876      0.00954813      0.00425747      0.04936127     -0.02976317      17       0      -1       0      32      0.00384265      0.05671523     -0.03075960
 Cl              7.82119715     10.42024673      0.00012236     -0.01339646      0.02493345      0.00362378      17      -1      -1       0      32     -0.00226524      0.01999136      0.00643251
 Cl              2.59919112      5.22309645     10.40856768     -0.00180838     -0.00971979     -0.00707996      17       0      -1      -1      32      0.01003428     -0.00603028      0.00054911
 Cl              7.81334239      5.22315992     10.41919717     -0.01034218     -0.04126420      0.01274308      17      -1      -1      -1      32     -0.00414180     -0.03268716      0.01634836
 Cl              2.61201907      0.00097390      5.21419254     -0.00399703      0.02597270     -0.00956041      17       0       0      -1      32      0.00031837      0.02103373     -0.02136350
 Cl              7.83030940      0.00288886      5.23284689     -0.02705888      0.01940445     -0.03027176      17      -1       0      -1      32     -0.03088669      0.00431770     -0.03997891
 Cl              2.62490080      5.21159344      5.21021410     -0.06940301     -0.01210988      0.00782471      17       0      -1       0      32     -0.06591622     -0.00682194      0.00376890
 Cl              7.81831829      5.23414462      5.20758215      0.00691174     -0.06198972      0.00517818      17      -1      -1       0      32      0.00604115     -0.05893071      0.00818975
 Cl              2.60194209      2.61993261      2.59536088      0.01598102     -0.04065550      0.01068177      17       0       0       0      32      0.01371736     -0.05217504      0.01986177
 Cl              7.81219464      2.60488442      2.62509977      0.00508103     -0.00619374     -0.05821246      17      -1       0       0      32      0.00235200     -0.00770777     -0.06192809
 Cl              2.62163464      7.81575963      2.60968897     -0.03259319     -0.01795145     -0.00555955      17       0      -1       0      32     -0.04006278     -0.01798171      0.00254462
 Cl              7.81885611      7.82550204      2.61632385     -0.01310157     -0.01484830     -0.04067064      17      -1      -1       0      32     -0.01909674     -0.02748954     -0.03411658
 Cl              2.59924730      2.61641901      7.81316813     -0.00090352     -0.02607304      0.01035072      17       0       0      -1      32     -0.00173944     -0.03707146      0.01008896
 Cl              7.80840318      2.61114836      7.82182970      0.02438258     -0.00502336      0.00344938      17      -1       0      -1      32      0.02411722     -0.00675913     -0.00583814
 Cl              2.60058922      7.83337451      7.78171033     -0.01069921     -0.03761351      0.06863831      17       0      -1      -1      32     -0.01637338     -0.04259210      0.07732823
 Cl              7.82609842      7.82218230      7.81064667     -0.01517901      0.00164052      0.02995113      17      -1      -1      -1      32     -0.02263559     -0.00671922      0.02602126
 Cl              0.00774334     10.41138994      2.61793124     -0.01625954      0.03753251     -0.01896764      17       0      -1       0      32     -0.01500405      0.03504734     -0.02145215
 Cl              5.22108695     10.41091716      2.60648701     -0.00667969      0.03602818     -0.00788111      17      -1      -1       0      32     -0.01191451      0.03516283     -0.00204060
 Cl              0.00284404      5.19009891      2.59507353     -0.00440358      0.04691573      0.01723681      17       0       0       0      32      0.00035064      0.06172323      0.02120854
 Cl              5.19878070      5.20480190      2.59721842      0.03039442      0.00231343     -0.01725039      17       0       0       0      32      0.04006493      0.00740806     -0.00823693
 Cl              0.00369568      0.00485510      7.81216828      0.00246101      0.01196963      0.02179715      17       0       0      -1      32      0.00751803     -0.00410317      0.02121755
 Cl              5.21153194      0.00108511      7.81865026     -0.00204421      0.01031745      0.00485620      17      -1       0      -1      32      0.00526778      0.00066797     -0.00799691
 Cl             10.40742472      5.21085040      7.82202857      0.04062081     -0.00161877     -0.01356553      17      -1       0      -1      32      0.04956340     -0.00179266     -0.02334734
 Cl              5.19965152      5.21011570      7.80734840      0.01771098     -0.00441281      0.02946933      17       0       0      -1      32      0.03291181     -0.00115855      0.02597292
 Cl              0.00411134      2.61035196      0.00631595     -0.01877479     -0.02553319     -0.01988609      17       0       0       0      32     -0.01625026     -0.03051266     -0.01688267
 Cl              5.20069473      2.59087068     10.41936851      0.02229521      0.02139501      0.00049465      17       0       0      -1      32      0.02168896      0.03087131      0.00856691
 Cl             10.40281799      7.82548911      0.01841097      0.04480831     -0.02371146     -0.04590308      17      -1      -1       0      32      0.05234543     -0.02825854     -0.04801465
 Cl              5.19636764      7.80376330     10.39973652      0.03392715      0.02545983      0.02219216      17       0      -1      -1      32      0.03971345      0.02167345      0.03253393
 Cl             10.41490312      2.61385878      5.19507366      0.02584271     -0.00544391      0.04546173      17      -1       0       0      32      0.02802271     -0.00839945      0.04918180
 Cl              5.21375719      2.62000432      5.20728928     -0.00059903     -0.04547593      0.01007702      17      -1       0       0      32     -0.00144756     -0.04885974      0.00971364
 Cl             10.42019754      7.81729895      5.20425012      0.02749224     -0.01920374      0.00752547      17      -1      -1       0      32      0.02130305     -0.01838851      0.00448163
 Cl              5.21989022      7.81360557      5.20331104     -0.01411276      0.02004362      0.02383865      17      -1      -1       0      32     -0.00986313      0.01943937      0.02446123
 64
 REF_virial="-0.01568457      -0.00000000      -0.00000000      -0.00000000      -0.01659503      -0.00000000      -0.00000000      -0.00000000      -0.01659503" REF_energy=-244.43344900 config_type=test data_type=phonon energy=-244.43343114890683 cutoff=5.00000000 nneightol=1.20000000 pbc="T T T" Lattice="10.12128792       0.00000000       0.00000000       0.00000000      10.12128792       0.00000000       0.00000000       0.00000000      10.12128792" Properties=species:S:1:pos:R:3:REF_forces:R:3:force_atom_sigma:R:1:Z:I:1:map_shift:I:3:n_neighb:I:1:force:R:3
 Li              0.00000000      0.00000000      0.00000000      0.00303094      0.00000000      0.00000000      0.00100000       3       0       0       0      32      0.00283449      0.00000000     -0.00000000
 Li              5.06064396      0.00000000      0.00000000      0.00346452      0.00000000      0.00000000      0.00100000       3      -1       0       0      32      0.00335772      0.00000000      0.00000000
 Li              0.00000000      5.06064396      0.00000000      0.00012905      0.00000000      0.00000000      0.00100000       3       0      -1       0      32     -0.00000000      0.00000000     -0.00000000
 Li              5.06064396      5.06064396      0.00000000      0.00013285      0.00000000      0.00000000      0.00100000       3      -1      -1       0      32      0.00000000      0.00000000      0.00000000
 Li              0.00000000      0.00000000      5.06064396      0.00012905      0.00000000      0.00000000      0.00100000       3       0       0      -1      32     -0.00000000      0.00000000     -0.00000000
 Li              5.06064396      0.00000000      5.06064396      0.00013285      0.00000000      0.00000000      0.00100000       3      -1       0      -1      32     -0.00000000     -0.00000000     -0.00000000
 Li              0.00000000      5.06064396      5.06064396     -0.00000140      0.00000000      0.00000000      0.00100000       3       0      -1      -1      32     -0.00000000     -0.00000000      0.00000000
 Li              5.06064396      5.06064396      5.06064396      0.00000060      0.00000000      0.00000000      0.00100000       3      -1      -1      -1      32     -0.00000000     -0.00000000      0.00000000