 1
 REF_virial="-0.00064487      -0.00000000      -0.00000000      -0.00000000      -0.00064487      -0.00000000      -0.00000000      -0.00000000      -0.00064487" REF_energy=-0.27567309 config_type=IsolatedAtom data_type=iso_atoms energy=-.27567309000000001 cutoff=5.00000000 nneightol=1.20000000 pbc="T T T" Lattice="20.00000000       0.00000000       0.00000000       0.00000000      20.00000000       0.00000000       0.00000000       0.00000000      20.00000000" Properties=species:S:1:pos:R:3:REF_forces:R:3:Z:I:1:map_shift:I:3:n_neighb:I:1:force:R:3
 Cl             10.00000000     10.00000000     10.00000000     -0.00000000      0.00000000      0.00000000      17      -1      -1      -1       0      0.00000000      0.00000000      0.00000000
 1
 REF_virial="-0.02475762      -0.00000000      -0.00000000      -0.00000000      -0.02475762      -0.00000000      -0.00000000      -0.00000000      -0.02475762" REF_energy=-0.28663766 config_type=IsolatedAtom data_type=iso_atoms energy=-.28663766000000002 cutoff=5.00000000 nneightol=1.20000000 pbc="T T T" Lattice="20.00000000       0.00000000       0.00000000       0.00000000      20.00000000       0.00000000       0.00000000       0.00000000      20.00000000" Properties=species:S:1:pos:R:3:REF_forces:R:3:Z:I:1:map_shift:I:3:n_neighb:I:1:force:R:3
 Li             10.00000000     10.00000000     10.00000000      0.00000000      0.00000000     -0.00000000       3      -1      -1      -1       0      0.00000000      0.00000000      0.00000000
 64
 REF_virial="15.31948481       0.00331087       0.00456197       0.00331087      15.30964083      -0.00105156       0.00456197      -0.00105156      15.32334650" REF_energy=-243.90847635 config_type=test data_type=rand_struc energy=-243.90852696499107 cutoff=5.00000000 nneightol=1.20000000 pbc="T T T" Lattice="9.91427712       0.00000000       0.00000000       0.00000000       9.91427712       0.00000000       0.00000000       0.00000000       9.91427712" Properties=species:S:1:pos:R:3:REF_forces:R:3:Z:I:1:map_shift:I:3:n_neighb:I:1:force:R:3
 Li              0.01448238      9.89669465      9.90569641     -0.03271956      0.04525130      0.04435419       3       0      -1      -1      32     -0.04514633      0.03101100      0.04880540
 Li              4.96332081      0.00491639      9.90916542      0.00092354     -0.02342566      0.01728165       3      -1       0      -1      32     -0.00681683     -0.02435026      0.01611618
 Li              0.00533150      4.97999533      9.90402596      0.00639067     -0.05105727      0.01869917       3       0      -1      -1      32     -0.00299596     -0.04569398      0.01914812
 Li              4.96260123      4.95575235      0.00253716     -0.01711042      0.01524783     -0.00788185       3      -1       0       0      32     -0.01876878      0.01249067     -0.00617174
 Li              9.91386469      9.90039227      4.95658812     -0.00232238      0.04489079      0.00422954       3      -1      -1       0      32      0.00244479      0.04786355      0.01110494
 Li              4.94847903      9.90329944      4.95818640      0.02338293      0.03702372     -0.00085562       3       0      -1      -1      32      0.02820684      0.03007638      0.00362859
 Li              9.89995773      4.95370911      4.96679437      0.03235020     -0.01484770     -0.02379900       3      -1       0      -1      32      0.04452170     -0.00693799     -0.01413768
 Li              4.94324717      4.97011109      4.95294165      0.03694197     -0.04634983     -0.00807465       3       0      -1       0      32      0.05209530     -0.04221996     -0.00177872
 Li              0.00581740      2.49020587      2.47718703     -0.00132607     -0.05361209      0.00382113       3       0       0       0      32     -0.00125818     -0.05072872     -0.00194998
 Li              4.95126167      2.48743750      2.47529202      0.01186504     -0.02643365      0.02018680       3       0       0       0      32      0.01360322     -0.02922335      0.01884571
 Li              0.01687945      7.42226953      2.48033283     -0.05818730      0.02243418      0.00660288       3       0      -1       0      32     -0.05533749      0.01617589      0.02029175
 Li              4.94413599      7.42898318      2.48806051      0.02929209      0.01129510     -0.02585523       3       0      -1       0      32      0.02631869      0.00962280     -0.01493330
 Li              9.90963288      2.48351997      7.45412976      0.01237664     -0.01135657     -0.02391117       3      -1       0      -1      32      0.01593255     -0.00958765     -0.02960284
 Li              4.95253050      2.48557144      7.44068659      0.00956278     -0.00824937     -0.01836841       3       0       0      -1      32      0.01535908     -0.00797689     -0.01946486
 Li              9.90987845      7.43212056      7.42745728      0.01731370      0.02120060      0.03246429       3      -1      -1      -1      32      0.01746854      0.01926263      0.03647960
 Li              4.95982374      7.43130431      7.42293776     -0.01287148      0.02328475      0.05435438       3      -1      -1      -1      32     -0.00622178      0.02303202      0.05454083
 Li              2.49184886      9.90269675      2.45454778     -0.02995853      0.03744644      0.04309858       3       0      -1       0      32     -0.03118435      0.04626531      0.06338046
 Li              7.43344461      0.01210315      2.47670678      0.01906274     -0.02337466     -0.00251466       3      -1       0       0      32      0.01580454     -0.02885618      0.01258912
 Li              2.48231618      4.94392798      2.47672027     -0.00651955      0.00197821     -0.01957774       3       0       0       0      32     -0.01026451      0.00812584     -0.01471545
 Li              7.43370654      4.95421653      2.48097121      0.00153598      0.00659273     -0.00271946       3      -1       0       0      32      0.00531477     -0.00456337     -0.00990027
 Li              2.48758770      9.90587368      7.42658809     -0.03231618      0.01455644      0.02079545       3       0      -1      -1      32     -0.03883767      0.01163893      0.03843050
 Li              7.44468928      9.91151332      7.42041507     -0.02167614      0.01831150      0.02364787       3      -1      -1      -1      32     -0.02794153      0.01372270      0.03206348
 Li              2.49015738      4.96752307      7.43282060     -0.00827255     -0.01987804      0.00360855       3       0      -1      -1      32     -0.00782503     -0.01668625      0.00185423
 Li              7.42807335      4.96480924      7.44998906      0.02046043     -0.01872470     -0.02110617       3      -1      -1      -1      32      0.02049270     -0.01832220     -0.02541328
 Li              2.49106633      2.47413700      9.89914724     -0.05060270      0.01122890      0.02974461       3       0       0      -1      32     -0.05525327      0.01364351      0.02861820
 Li              7.43658902      2.48145741      9.90072579      0.00673999     -0.03332926      0.03787966       3      -1       0      -1      32      0.00117948     -0.03045258      0.04678840
 Li              2.46694866      7.43169682      0.01572930      0.03317147      0.00338132     -0.02797882       3       0      -1       0      32      0.04297121      0.00684247     -0.02627629
 Li              7.42279301      7.43218649      0.00892860      0.00958555      0.01260833      0.01393638       3      -1      -1       0      32      0.02140257      0.01403820      0.01253704
 Li              2.47454617      2.47558290      4.96428745     -0.00085619     -0.00240978     -0.01963360       3       0       0      -1      32      0.00264100     -0.00082362     -0.01187750
 Li              7.41953904      2.49659225      4.95557637      0.02377845     -0.05768778      0.00929156       3      -1       0       0      33      0.03085328     -0.05492617      0.02140446
 Li              2.48195263      7.42637157      4.94374745     -0.00031289      0.01890713      0.03988360       3       0      -1       0      32     -0.00802282      0.02127304      0.03520400
 Li              7.43501533      7.42230572      4.95663967      0.01355193      0.02668926     -0.00706981       3      -1      -1       0      32      0.01114678      0.01831209     -0.00745194
 Cl              2.47213630      9.90756436      0.00068240      0.04210059      0.00821310     -0.00625445      17       0      -1       0      32      0.04028580      0.00798715     -0.00816245
 Cl              7.44356064      9.90144190      9.91058098     -0.04409376      0.05596804      0.01007984      17      -1      -1      -1      32     -0.04262910      0.06817119      0.01307893
 Cl              2.48391734      4.96664139      0.00051534     -0.02324529     -0.02849284     -0.00889780      17       0      -1       0      32     -0.02713901     -0.03014464     -0.00178742
 Cl              7.43616677      4.94938401      0.00159461      0.01269596      0.02394256      0.00014953      17      -1       0       0      32      0.01144149      0.03017990      0.00274366
 Cl              2.47882646      0.00887536      4.96636964     -0.00923628     -0.05000812     -0.03826307      17       0       0      -1      32     -0.01422881     -0.04245487     -0.04458282
 Cl              7.44058983      9.90685846      4.95374292     -0.02266854      0.00596819      0.04072339      17      -1      -1       0      32     -0.02130751      0.01743970      0.04038562
 Cl              2.50943520      4.94880482      4.93730069     -0.11534773      0.03122041      0.06813994      17       0       0       0      33     -0.11235851      0.01970397      0.06918077
 Cl              7.42444790      4.94500001      4.95983267      0.02630352      0.07278632      0.00638799      17      -1       0      -1      32      0.00857281      0.07643770      0.00017998
 Cl              2.48049295      2.48660450      2.46717649     -0.00850675     -0.06161515      0.03546241      17       0       0       0      32     -0.01691004     -0.06903830      0.03057244
 Cl              7.44457031      2.47694483      2.49082025     -0.04709024      0.00670862     -0.06671925      17      -1       0       0      32     -0.04877536      0.00005711     -0.07525365
 Cl              2.47220501      7.42947810      2.47727795      0.02623690      0.00540173      0.03360556      17       0      -1       0      32      0.02992442      0.00500962      0.01831733
 Cl              7.42032465      7.43885661      2.48463325      0.07012134     -0.04803849      0.00792868      17      -1      -1       0      32      0.07769954     -0.04594193     -0.00182827
 Cl              2.48149221      2.48855960      7.44323238     -0.01792212     -0.00822204     -0.03282283      17       0       0      -1      32     -0.02527557     -0.00531220     -0.03149985
 Cl              7.43935550      2.48160791      7.44205030     -0.03640643     -0.00235342     -0.01388904      17      -1       0      -1      32     -0.03684430     -0.01009762     -0.01796494
 Cl              2.48000249      7.42555929      7.45477587      0.00472577      0.03222907     -0.07683243      17       0      -1      -1      32      0.00493567      0.02926894     -0.07992297
 Cl              7.43583187      7.43857366      7.44609592     -0.00466713     -0.02024467     -0.03577102      17      -1      -1      -1      32     -0.00670019     -0.01685762     -0.03957287
 Cl              0.00100075      9.90106853      2.48540091      0.01919511      0.02927259     -0.01593268      17       0      -1       0      32      0.01742186      0.04282565     -0.03213672
 Cl              4.96093305      9.90572159      2.48464941     -0.02739141      0.03034581     -0.02222054      17      -1      -1       0      32     -0.02756272      0.03891083     -0.03361916
 Cl              0.00206187      4.94169013      2.48078819     -0.01394215      0.07953862      0.01052792      17       0       0       0      32     -0.01690365      0.08292198      0.01249871
 Cl              4.95260873      4.95586388      2.46591579      0.03581617      0.00473658      0.04303777      17       0       0       0      32      0.03777445      0.00360275      0.04441604
 Cl              9.90991553      0.01231333      7.45997720      0.03606278     -0.05422860     -0.09584495      17      -1       0      -1      32      0.04475314     -0.04777268     -0.10794904
 Cl              4.93771709      0.01900478      7.44077840      0.08235885     -0.07321631     -0.01102136      17       0       0      -1      32      0.08884070     -0.07071709     -0.01682655
 Cl              0.01150909      4.95570129      7.42737945     -0.03577149      0.02273152      0.01940499      17       0       0      -1      32     -0.03916010      0.01121974      0.02018626
 Cl              4.96294486      4.95520676      7.43110900     -0.00515941      0.01496222      0.02208650      17      -1       0      -1      32     -0.01569505      0.00417457      0.02993931
 Cl              9.91325109      2.47262795      0.00454837      0.01120014      0.03993787     -0.00112024      17      -1       0       0      32      0.02295144      0.03142018     -0.00006177
 Cl              4.93839820      2.47633579      0.00963271      0.09162205      0.00456508     -0.02714976      17       0       0       0      32      0.10169436     -0.00317940     -0.02404450
 Cl              0.00071224      7.44376924      0.01077454     -0.02654379     -0.06647156     -0.03019290      17       0      -1       0      32     -0.02650952     -0.06397527     -0.03346394
 Cl              4.95810857      7.43640372      0.01694191     -0.01355597     -0.00108400     -0.06906418      17      -1      -1       0      32     -0.01017391      0.00529983     -0.07339928
 Cl              9.90391065      2.47378594      4.95820553      0.04358117      0.01720900      0.02334274      17      -1       0      -1      32      0.04398474      0.00498532      0.01586098
 Cl              4.96004037      2.46824981      4.95095314     -0.01678107      0.03094919      0.02091382      17      -1       0       0      32     -0.01483374      0.02295513      0.00946604
 Cl              0.01347301      7.44366732      4.96766138     -0.03377607     -0.07096803     -0.01780880      17       0      -1      -1      32     -0.03992174     -0.06586359     -0.02794672
 Cl              4.96274042      7.43927133      4.95972014     -0.03314888     -0.01333546      0.01348008      17      -1      -1      -1      32     -0.03923408     -0.00326392      0.00503968
 64
 REF_virial="-18.10383404      -0.00199323       0.00069561      -0.00199323     -18.09331827      -0.00221593       0.00069561      -0.00221593     -18.11536927" REF_energy=-243.63816253 config_type=test data_type=rand_struc energy=-243.63812917800482 cutoff=5.00000000 nneightol=1.20000000 pbc="T T T" Lattice="10.42270159       0.00000000       0.00000000       0.00000000      10.42270159       0.00000000       0.00000000       0.00000000      10.42270159" Properties=species:S:1:pos:R:3:REF_forces:R:3:Z:I:1:map_shift:I:3:n_neighb:I:1:force:R:3
 Li             10.40733801     10.41428682      0.01060062      0.03115830      0.00453354      0.00475949       3      -1      -1       0      32      0.03351876      0.00841861      0.01313706
 Li              5.21144439      0.01673625      0.00586454     -0.02034712     -0.03571102     -0.00507890       3      -1       0       0      32     -0.01696153     -0.02960977     -0.00486820
 Li             10.42225466      5.21425373      0.00270042     -0.01132787     -0.00534047     -0.00120156       3      -1      -1       0      32     -0.01640984     -0.00363191     -0.00493208
 Li              5.20148143      5.20347332     10.41257041      0.01124426      0.02276834      0.00909787       3       0       0      -1      32      0.01175532      0.01822541      0.01417033
 Li              0.00395771     10.41840431      5.20124901     -0.00710468     -0.02269139      0.00290056       3       0      -1       0      32     -0.00949944     -0.00229608      0.00616047
 Li              5.21863512     10.41713493      5.22301786      0.00192515     -0.00071459     -0.00676875       3      -1      -1      -1      32     -0.01016516      0.01832685     -0.00766174
 Li             10.41670249      5.18330424      5.22056947     -0.00848403      0.04617029     -0.00999436       3      -1       0      -1      32     -0.00604007      0.05535802     -0.00715846
 Li              5.18715616      5.18783760      5.20962563      0.02997668      0.02308231     -0.00663302       3       0       0       0      32      0.03144221      0.03001155     -0.00058091
 Li              0.01349563      2.61170608      2.60385382      0.00248760     -0.01217402     -0.00945654       3       0       0       0      32      0.00031070     -0.00311876     -0.00920351
 Li              5.21951604      2.60405581      2.58727328     -0.01756206      0.01260367      0.03541386       3      -1       0       0      32     -0.02315251      0.00955231      0.03288291
 Li             10.41946107      7.80293095      2.60149308      0.00098518      0.01635418      0.02190841       3      -1      -1       0      32     -0.00062234      0.02346780      0.01352981
 Li              5.21504356      7.82577313      2.60639936     -0.00126970     -0.02120356      0.00803603       3      -1      -1       0      32     -0.00009787     -0.01538235     -0.00348649
 Li              0.01577955      2.60286815      7.81267597     -0.00971888      0.00367562      0.01415070       3       0       0      -1      32     -0.01668858     -0.00081787      0.02091883
 Li              5.23182776      2.60701044      7.82535987     -0.01908898      0.00439756     -0.03052868       3      -1       0      -1      32     -0.02951874      0.00240496     -0.02359829
 Li              0.01687613      7.83201331      7.82771394     -0.03365116     -0.01018313     -0.02894459       3       0      -1      -1      32     -0.03555386     -0.01448291     -0.02866628
 Li              5.21299727      7.82770383      7.82640350      0.01584503     -0.01373226     -0.02469455       3      -1      -1      -1      32      0.00699551     -0.01514514     -0.03049981
 Li              2.60474475     10.40193165      2.62838771     -0.00302267      0.00676363     -0.02239620       3       0      -1       0      32      0.00064687      0.01050387     -0.04338497
 Li              7.81148246      0.02250147      2.59797531      0.01292782     -0.03339711      0.02798762       3      -1       0       0      32      0.00923374     -0.03601992      0.02850606
 Li              2.59923594      5.21286240      2.61135911      0.01798880     -0.00003152     -0.00395361       3       0      -1       0      32      0.01775310      0.00551499     -0.01575682
 Li              7.81821344      5.20891907      2.60702097     -0.01411584      0.01749932      0.00562087       3      -1       0       0      32     -0.01576795      0.00550583     -0.00088701
 Li              2.59900987     10.41369398      7.82811376      0.00719162      0.01077502     -0.00493369       3       0      -1      -1      32      0.00367328      0.01269877     -0.02225678
 Li              7.82157695     10.42240506      7.81773514     -0.00169071     -0.01368896     -0.01573514       3      -1      -1      -1      32      0.00051252     -0.00169361     -0.01085956
 Li              2.59962981      5.20923634      7.81319345      0.00997156     -0.00055993     -0.00639976       3       0       0      -1      32      0.00714182     -0.00036227     -0.01450414
 Li              7.82059993      5.20489477      7.81420008     -0.01030229      0.02576869     -0.00448375       3      -1       0      -1      32     -0.00520771      0.03052888     -0.00077930
 Li              2.61498527      2.61122215     10.41033912     -0.02351508     -0.01685784      0.01989662       3       0       0      -1      32     -0.02914713     -0.01609501      0.01995549
 Li              7.82930622      2.59211838     10.41716213      0.00508613      0.02394565      0.00599286       3      -1       0      -1      32     -0.00438499      0.02270309      0.00253033
 Li              2.61587495      7.79735386     10.39177504     -0.00335767      0.02852762      0.03678682       3       0      -1      -1      32     -0.00174152      0.02903095      0.04677784
 Li              7.81340066      7.81384873     10.41739998     -0.00238207     -0.00957380      0.00386505       3      -1      -1      -1      32     -0.00354684     -0.00457701      0.00507613
 Li              2.60186131      2.59877348      5.21536635      0.02483795      0.00389197     -0.01599204       3       0       0      -1      32      0.02400302      0.00255340     -0.01050886
 Li              7.83367969      2.60749624      5.21555854     -0.03098264      0.00249802     -0.00539916       3      -1       0      -1      32     -0.03345412     -0.00673663     -0.00957411
 Li              2.60859990      7.80369337      5.21338645     -0.00089687      0.01145255     -0.02330325       3       0      -1      -1      32      0.00024305      0.01210890     -0.00361766
 Li              7.81530645      7.81936932      5.21235533      0.00638360     -0.00329389     -0.00133761       3      -1      -1      -1      32      0.00786230     -0.01494472      0.00202559
 Cl              2.60167318     10.39405876      0.00954813      0.00425747      0.04936127     -0.02976317      17       0      -1       0      32      0.00392540      0.05680192     -0.03085627
 Cl              7.82119715     10.42024673      0.00012236     -0.01339646      0.02493345      0.00362378      17      -1      -1       0      32     -0.00209688      0.02007436      0.00645951
 Cl              2.59919112      5.22309645     10.40856768     -0.00180838     -0.00971979     -0.00707996      17       0      -1      -1      32      0.01024214     -0.00616245      0.00060329
 Cl              7.81334239      5.22315992     10.41919717     -0.01034218     -0.04126420      0.01274308      17      -1      -1      -1      32     -0.00389934     -0.03270080      0.01628677
 Cl              2.61201907      0.00097390      5.21419254     -0.00399703      0.02597270     -0.00956041      17       0       0      -1      32      0.00036557      0.02103454     -0.02143091
 Cl              7.83030940      0.00288886      5.23284689     -0.02705888      0.01940445     -0.03027176      17      -1       0      -1      32     -0.03088869      0.00431149     -0.04020375
 Cl              2.62490080      5.21159344      5.21021410     -0.06940301     -0.01210988      0.00782471      17       0      -1       0      32     -0.06592819     -0.00685601      0.00386364
 Cl              7.81831829      5.23414462      5.20758215      0.00691174     -0.06198972      0.00517818      17      -1      -1       0      32      0.00622063     -0.05914731      0.00830621
 Cl              2.60194209      2.61993261      2.59536088      0.01598102     -0.04065550      0.01068177      17       0       0       0      32      0.01370269     -0.05223186      0.01996206
 Cl              7.81219464      2.60488442      2.62509977      0.00508103     -0.00619374     -0.05821246      17      -1       0       0      32      0.00235911     -0.00762699     -0.06206534
 Cl              2.62163464      7.81575963      2.60968897     -0.03259319     -0.01795145     -0.00555955      17       0      -1       0      32     -0.04018426     -0.01803248      0.00267979
 Cl              7.81885611      7.82550204      2.61632385     -0.01310157     -0.01484830     -0.04067064      17      -1      -1       0      32     -0.01921910     -0.02775743     -0.03410724
 Cl              2.59924730      2.61641901      7.81316813     -0.00090352     -0.02607304      0.01035072      17       0       0      -1      32     -0.00185769     -0.03723721      0.01012559
 Cl              7.80840318      2.61114836      7.82182970      0.02438258     -0.00502336      0.00344938      17      -1       0      -1      32      0.02426766     -0.00690292     -0.00586044
 Cl              2.60058922      7.83337451      7.78171033     -0.01069921     -0.03761351      0.06863831      17       0      -1      -1      32     -0.01630709     -0.04262311      0.07767904
 Cl              7.82609842      7.82218230      7.81064667     -0.01517901      0.00164052      0.02995113      17      -1      -1      -1      32     -0.02279387     -0.00687251      0.02607616
 Cl              0.00774334     10.41138994      2.61793124     -0.01625954      0.03753251     -0.01896764      17       0      -1       0      32     -0.01491127      0.03497136     -0.02175645
 Cl              5.22108695     10.41091716      2.60648701     -0.00667969      0.03602818     -0.00788111      17      -1      -1       0      32     -0.01205704      0.03529226     -0.00211360
 Cl              0.00284404      5.19009891      2.59507353     -0.00440358      0.04691573      0.01723681      17       0       0       0      32      0.00037861      0.06195063      0.02119392
 Cl              5.19878070      5.20480190      2.59721842      0.03039442      0.00231343     -0.01725039      17       0       0       0      32      0.04024250      0.00727607     -0.00815717
 Cl              0.00369568      0.00485510      7.81216828      0.00246101      0.01196963      0.02179715      17       0       0      -1      32      0.00758110     -0.00431556      0.02125004
 Cl              5.21153194      0.00108511      7.81865026     -0.00204421      0.01031745      0.00485620      17      -1       0      -1      32      0.00536399      0.00066155     -0.00808338
 Cl             10.40742472      5.21085040      7.82202857      0.04062081     -0.00161877     -0.01356553      17      -1       0      -1      32      0.04971810     -0.00193369     -0.02342803
 Cl              5.19965152      5.21011570      7.80734840      0.01771098     -0.00441281      0.02946933      17       0       0      -1      32      0.03309700     -0.00128691      0.02606133
 Cl              0.00411134      2.61035196      0.00631595     -0.01877479     -0.02553319     -0.01988609      17       0       0       0      32     -0.01616907     -0.03056582     -0.01690411
 Cl              5.20069473      2.59087068     10.41936851      0.02229521      0.02139501      0.00049465      17       0       0      -1      32      0.02167041      0.03105242      0.00862303
 Cl             10.40281799      7.82548911      0.01841097      0.04480831     -0.02371146     -0.04590308      17      -1      -1       0      32      0.05235698     -0.02841008     -0.04812148
 Cl              5.19636764      7.80376330     10.39973652      0.03392715      0.02545983      0.02219216      17       0      -1      -1      32      0.03983138      0.02165152      0.03271913
 Cl             10.41490312      2.61385878      5.19507366      0.02584271     -0.00544391      0.04546173      17      -1       0       0      32      0.02815542     -0.00858408      0.04934639
 Cl              5.21375719      2.62000432      5.20728928     -0.00059903     -0.04547593      0.01007702      17      -1       0       0      32     -0.00156913     -0.04909031      0.00985532
 Cl             10.42019754      7.81729895      5.20425012      0.02749224     -0.01920374      0.00752547      17      -1      -1       0      32      0.02119290     -0.01825457      0.00451841
 Cl              5.21989022      7.81360557      5.20331104     -0.01411276      0.02004362      0.02383865      17      -1      -1       0      32     -0.00992200      0.01951373      0.02459266
 64
 REF_virial="-0.01568457      -0.00000000      -0.00000000      -0.00000000      -0.01659503      -0.00000000      -0.00000000      -0.00000000      -0.01659503" REF_energy=-244.43344900 config_type=test data_type=phonon energy=-244.43343173206893 cutoff=5.00000000 nneightol=1.20000000 pbc="T T T" Lattice="10.12128792       0.00000000       0.00000000       0.00000000      10.12128792       0.00000000       0.00000000       0.00000000      10.12128792" Properties=species:S:1:pos:R:3:REF_forces:R:3:force_atom_sigma:R:1:Z:I:1:map_shift:I:3:n_neighb:I:1:force:R:3
 Li              0.00000000      0.00000000      0.00000000      0.00303094      0.00000000      0.00000000      0.00100000       3       0       0       0      32      0.00284587      0.00000000     -0.00000000
 Li              5.06064396      0.00000000      0.00000000      0.00346452      0.00000000      0.00000000      0.00100000       3      -1       0       0      32      0.00335688      0.00000000      0.00000000
 Li              0.00000000      5.06064396      0.00000000      0.00012905      0.00000000      0.00000000      0.00100000       3       0      -1       0      32      0.00000000      0.00000000      0.00000000
 Li              5.06064396      5.06064396      0.00000000      0.00013285      0.00000000      0.00000000      0.00100000       3      -1      -1       0      32     -0.00000000     -0.00000000     -0.00000000
 Li              0.00000000      0.00000000      5.06064396      0.00012905      0.00000000      0.00000000      0.00100000       3       0       0      -1      32      0.00000000     -0.00000000      0.00000000
 Li              5.06064396      0.00000000      5.06064396      0.00013285      0.00000000      0.00000000      0.00100000       3      -1       0      -1      32      0.00000000     -0.00000000     -0.00000000
 Li              0.00000000      5.06064396      5.06064396     -0.00000140      0.00000000      0.00000000      0.00100000       3       0      -1      -1      32      0.00000000     -0.00000000      0.00000000
 Li              5.06064396      5.06064396      5.06064396      0.00000060      0.00000000      0.00000000      0.00100000       3      -1      -1      -1      32      0.00000000     -0.00000000     -0.00000000