 64
 REF_virial="-3.07249332      -0.00103147       0.00136362      -0.00103147      -3.09640541       0.00302804       0.00136362       0.00302804      -3.09705440" REF_energy=-244.39678685 config_type=test data_type=rand_struc energy=-244.39247180406443 cutoff=5.00000000 nneightol=1.20000000 pbc="T T T" Lattice="10.16848936       0.00000000       0.00000000       0.00000000      10.16848936       0.00000000       0.00000000       0.00000000      10.16848936" Properties=species:S:1:pos:R:3:REF_forces:R:3:Z:I:1:map_shift:I:3:n_neighb:I:1:force:R:3
 Li             10.15884699      0.00704209      0.00725074      0.02148679     -0.01091882     -0.01891965       3      -1       0       0      32      0.02314058     -0.00893064     -0.02160439
 Li              5.07870916     10.16652440      0.00013829     -0.01489042      0.00457430     -0.01854037       3       0      -1       0      32     -0.00975216      0.00091489     -0.02133520
 Li             10.15269780      5.09364636      0.00274427      0.00383468     -0.00696121     -0.00536161       3      -1      -1       0      32      0.00582056     -0.00767466     -0.01063215
 Li              5.08140198      5.10512272     10.15133532     -0.00140003     -0.01978969      0.02326251       3       0      -1      -1      32      0.00636915     -0.01502618      0.00778292
 Li             10.16564106     10.16781539      5.08890042      0.01655723      0.00376538      0.00565490       3      -1      -1      -1      32      0.00224852      0.01480184     -0.00210222
 Li              5.10760709     10.15851336      5.08754293     -0.04717900      0.01484785     -0.00307826       3      -1      -1      -1      32     -0.04627358      0.02079533     -0.00917800
 Li              0.00298140      5.07597770      5.07481066     -0.01199582      0.00845832     -0.00160931       3       0       0       0      32     -0.01148526      0.01010878     -0.01147570
 Li              5.07822412      5.08542768      5.09506050      0.02573712     -0.00359847     -0.02526098       3       0      -1      -1      32      0.02357094      0.00412502     -0.02760629
 Li              0.01598822      2.54486824      2.53858869     -0.03507238     -0.00340883      0.00103593       3       0       0       0      32     -0.02867769     -0.00178084      0.00293461
 Li              5.06499563      2.55896634      2.52773372      0.02624772     -0.00377968      0.02069438       3       0       0       0      32      0.01467879     -0.00735560      0.02615487
 Li             10.14934474      7.61305006      2.54811707      0.01184241      0.01998025     -0.01359888       3      -1      -1       0      32      0.01266924      0.01429184     -0.00783022
 Li              5.08648449      7.62053895      2.53545954     -0.00702980      0.00204903      0.00565799       3      -1      -1       0      32      0.00005391     -0.00560382      0.01694926
 Li              0.00449356      2.56570063      7.63000805      0.00268648     -0.04033511     -0.01095645       3       0       0      -1      32     -0.00654103     -0.04076074     -0.00152970
 Li              5.09230575      2.55661671      7.62225254     -0.02355761     -0.02466761     -0.00157850       3      -1       0      -1      32     -0.02693263     -0.02841638      0.00911496
 Li             10.15276237      7.62841211      7.62005595      0.01908582      0.01729419      0.01071546       3      -1      -1      -1      32      0.02812376      0.00278955      0.01314489
 Li              5.06300372      7.62955911      7.60807920      0.02054367      0.00416543      0.02218382       3       0      -1      -1      32      0.02700047     -0.00312559      0.02651797
 Li              2.54626925     10.16388009      2.54421105     -0.01564654     -0.00703707      0.00309867       3       0      -1       0      32     -0.02207760      0.00118715      0.00307037
 Li              7.62796022      0.00228984      2.53557495     -0.01582809     -0.00595874      0.01656193       3      -1       0       0      32     -0.01552448      0.00200227      0.01893000
 Li              2.54890706      5.07782053      2.53645666     -0.00607355      0.01968796     -0.00876102       3       0       0       0      32     -0.01489011      0.02096401      0.00506887
 Li              7.63353143      5.07318096      2.53386888     -0.02780434      0.01125574      0.00706557       3      -1       0       0      32     -0.03208340      0.01039033      0.01421229
 Li              2.54439286     10.15393368      7.63383303     -0.00656268      0.03083937     -0.00996144       3       0      -1      -1      32     -0.01063625      0.03499707     -0.00689721
 Li              7.62132731     10.16459747      7.62914739      0.00174153      0.00532560     -0.00295403       3      -1      -1      -1      32      0.00541063      0.00854671      0.00573438
 Li              2.52951728      5.08769627      7.60373715      0.01865079     -0.00565391      0.02557750       3       0      -1      -1      32      0.01375154      0.00140280      0.03052181
 Li              7.62281954      5.08713416      7.61805143     -0.00530963     -0.00548458      0.00316021       3      -1      -1      -1      32      0.00143493     -0.00347604      0.01280799
 Li              2.54700454      2.55878321      0.00319402     -0.01421405     -0.02454450     -0.02281309       3       0       0       0      32     -0.01016608     -0.02570342     -0.02658140
 Li              7.60287659      2.53244743      0.02222700      0.02009253      0.02491373     -0.02509314       3      -1       0       0      32      0.01439765      0.01153069     -0.03158935
 Li              2.55764810      7.62389953      0.00611472     -0.02750250      0.00489735     -0.00538768       3       0      -1       0      32     -0.04471130     -0.00095233     -0.00611148
 Li              7.64373144      7.64627387      0.00468696     -0.02762612     -0.03971733     -0.00351788       3      -1      -1       0      32     -0.04176863     -0.03316471     -0.01197595
 Li              2.54727563      2.54360857      5.08392702      0.00156417     -0.01707944      0.02294042       3       0       0       0      32      0.00699537     -0.02602211      0.01330913
 Li              7.60844099      2.53194317      5.09217529      0.01441615      0.02406798     -0.00966958       3      -1       0      -1      32      0.01878543      0.01352105     -0.02556157
 Li              2.53205218      7.63243080      5.07671471      0.01348365      0.00861239      0.00997954       3       0      -1       0      32      0.00698515      0.00459874      0.00043300
 Li              7.62593740      7.62975913      5.09736854     -0.00713933     -0.01670848     -0.02192216       3      -1      -1      -1      32     -0.00077837     -0.01498703     -0.03002144
 Cl              2.54095856     10.16235207     10.15655928     -0.01122030      0.02849918      0.06163891      17       0      -1      -1      32     -0.00691064      0.03086008      0.05796356
 Cl              7.61841323     10.16773496      0.00707656     -0.00915358      0.00696205     -0.01898190      17      -1      -1       0      32     -0.00719342      0.00724380     -0.01707356
 Cl              2.52432575      5.07957023      0.00069552      0.01347739      0.01886579     -0.00254321      17       0       0       0      32      0.01827518      0.01659782      0.00053749
 Cl              7.61559401      5.07713833     10.16776130      0.02959391      0.01310915     -0.02907616      17      -1       0      -1      32      0.03071367      0.01430880     -0.02107700
 Cl              2.55647415      0.00025625      5.10199673     -0.04024489     -0.01369755     -0.07150421      17       0       0      -1      32     -0.03805612     -0.01613645     -0.06457660
 Cl              7.61138558     10.16759982      5.09028263      0.03065481     -0.00252590     -0.03072718      17      -1      -1      -1      32      0.02669213     -0.00680400     -0.02406743
 Cl              2.56545333      5.08789730      5.05957226     -0.08394755      0.00569802      0.06398720      17       0      -1       0      32     -0.08048093      0.00241335      0.06457169
 Cl              7.62724354      5.09299833      5.06971981     -0.00514153     -0.03833558      0.05845603      17      -1      -1       0      32     -0.01134457     -0.03877043      0.05887625
 Cl              2.53900417      2.53888510      2.55768125     -0.02577611      0.00479647     -0.05448178      17       0       0       0      32     -0.02655207      0.00374999     -0.05477418
 Cl              7.61732774      2.54434680      2.54531718      0.01770712     -0.01782921     -0.00670384      17      -1       0       0      32      0.02014502     -0.01414208     -0.00564389
 Cl              2.52310167      7.62604814      2.53914521      0.04413447      0.01234521     -0.00099452      17       0      -1       0      32      0.04899396      0.01674658     -0.00497832
 Cl              7.62510369      7.61201440      2.54560393     -0.03786707      0.06156208     -0.00712007      17      -1      -1       0      32     -0.03393537      0.06039137     -0.00982667
 Cl              2.54654919      2.53744494      7.62420561     -0.01884351      0.04282179     -0.00346045      17       0       0      -1      32     -0.01740209      0.03969867     -0.00686097
 Cl              7.61942672      2.52872810      7.62666953      0.01463727      0.03986008     -0.00078975      17      -1       0      -1      32      0.00946140      0.03968334     -0.00616713
 Cl              2.55231778      7.64642670      7.64382835     -0.05603827     -0.09429392     -0.05289768      17       0      -1      -1      32     -0.05125115     -0.08409052     -0.05311537
 Cl              7.61889460      7.63190305      7.61611606      0.01104725     -0.01609957      0.03159015      17      -1      -1      -1      32      0.00996767     -0.00992135      0.02954143
 Cl             10.14876534     10.16366777      2.54816252      0.04419317      0.02650722     -0.00901358      17      -1      -1       0      32      0.04746489      0.02143989     -0.00702236
 Cl              5.06514470      0.01287809      2.52416458      0.04591662     -0.04933030      0.03959343      17       0       0       0      32      0.04603660     -0.05016703      0.03845674
 Cl             10.15054289      5.09798821      2.53877152      0.05362073     -0.06903929     -0.00186973      17      -1      -1       0      32      0.05278652     -0.06671469     -0.00516690
 Cl              5.07955314      5.09366243      2.53706148     -0.00346104     -0.01143040     -0.00649026      17       0      -1       0      32     -0.00157957     -0.01298251     -0.01174744
 Cl              0.00726935     10.16234993      7.62243212     -0.04767244      0.01050588      0.00243984      17       0      -1      -1      32     -0.04136880      0.00519978      0.00117717
 Cl              5.06965015     10.16657931      7.61467143      0.06149583      0.02052798      0.05083858      17       0      -1      -1      32      0.05830448      0.02273452      0.04862975
 Cl              0.00533469      5.09701356      7.61880848     -0.01722827     -0.01620742     -0.00879649      17       0      -1      -1      32     -0.01455408     -0.01278564     -0.00978486
 Cl              5.07552256      5.08014566      7.63111865      0.01211855      0.01536531     -0.02740440      17       0       0      -1      32      0.00831378      0.01081099     -0.03054127
 Cl             10.16252727      2.53757357     10.14774340      0.00362379      0.01474282      0.06802610      17      -1       0      -1      32      0.00585570      0.01670221      0.06849679
 Cl              5.07344991      2.56410997     10.16780502      0.00718643     -0.05425881     -0.00027600      17       0       0      -1      32      0.00904271     -0.04933094     -0.00036676
 Cl             10.14961298      7.62544525      0.00135922      0.02982601      0.01167804     -0.01347700      17      -1      -1       0      32      0.02753160      0.01333298     -0.01431848
 Cl              5.08736569      7.61423998     10.15451450     -0.00012323      0.04308978      0.03813041      17      -1      -1      -1      32     -0.00163693      0.04301151      0.03771894
 Cl              0.00208861      2.54408913      5.08302446     -0.01173671      0.00394221      0.00099183      17       0       0       0      32     -0.00759998      0.00545077      0.00694466
 Cl              5.08259220      2.55061903      5.08182143      0.01068934     -0.01443657     -0.00572158      17       0       0       0      32      0.01516055     -0.00987135      0.00084786
 Cl             10.16360310      7.62305962      5.07607328      0.02186871      0.00988446      0.03276421      17      -1      -1       0      32      0.02372247      0.01064382      0.03863575
 Cl              5.08245014      7.61401109      5.09889859     -0.00647573      0.03762959     -0.06473169      17       0      -1      -1      32     -0.00774062      0.03670872     -0.05994391
 64
 REF_virial="-0.01658071      -0.00000000      -0.00000000      -0.00000000      -0.01736275      -0.00000000      -0.00000000      -0.00000000      -0.01736275" REF_energy=-244.43352591 config_type=test data_type=phonon energy=-244.43350322149709 cutoff=5.00000000 nneightol=1.20000000 pbc="T T T" Lattice="10.12128792       0.00000000       0.00000000       0.00000000      10.12128792       0.00000000       0.00000000       0.00000000      10.12128792" Properties=species:S:1:pos:R:3:REF_forces:R:3:force_atom_sigma:R:1:Z:I:1:map_shift:I:3:n_neighb:I:1:force:R:3
 Li              0.01000003      0.00000000      0.00000000     -0.01620734     -0.00000000     -0.00000000      0.00162073       3       0       0       0      32     -0.01697023      0.00000000      0.00000000
 Li              5.06064396      0.00000000      0.00000000      0.00470080     -0.00000000      0.00000000      0.00100000       3      -1       0       0      32      0.00000000      0.00000000     -0.00000000
 Li              0.00000000      5.06064396      0.00000000      0.00017782     -0.00000000      0.00000000      0.00100000       3       0      -1       0      32     -0.00000000      0.00000000      0.00000000
 Li              5.06064396      5.06064396      0.00000000      0.00000338     -0.00000000      0.00000000      0.00100000       3      -1      -1       0      32     -0.00000000     -0.00000000      0.00000000
 Li              0.00000000      0.00000000      5.06064396      0.00017782     -0.00000000      0.00000000      0.00100000       3       0       0      -1      32      0.00000000      0.00000000      0.00000000
 Li              5.06064396      0.00000000      5.06064396      0.00000338     -0.00000000      0.00000000      0.00100000       3      -1       0      -1      32      0.00000000      0.00000000      0.00000000
 Li              0.00000000      5.06064396      5.06064396     -0.00018352     -0.00000000     -0.00000000      0.00100000       3       0      -1      -1      32     -0.00000000      0.00000000     -0.00000000
 Li              5.06064396      5.06064396      5.06064396      0.00016801     -0.00000000      0.00000000      0.00100000       3      -1      -1      -1      32     -0.00000000      0.00000000      0.00000000
 Li              0.00000000      2.53032198      2.53032198     -0.00053492     -0.00000327     -0.00000327      0.00100000       3       0       0       0      32     -0.00125440     -0.00000447     -0.00000447
 Li              5.06064396      2.53032198      2.53032198      0.00041823      0.00000106      0.00000106      0.00100000       3      -1       0       0      32     -0.00000000      0.00000000      0.00000000
 Li              0.00000000      7.59096594      2.53032198     -0.00053492      0.00000327     -0.00000327      0.00100000       3       0      -1       0      32     -0.00125440      0.00000447     -0.00000447
 Li              5.06064396      7.59096594      2.53032198      0.00041823     -0.00000106      0.00000106      0.00100000       3      -1      -1       0      32     -0.00000000     -0.00000000     -0.00000000
 Li              0.00000000      2.53032198      7.59096594     -0.00053492     -0.00000327      0.00000327      0.00100000       3       0       0      -1      32     -0.00125440     -0.00000447      0.00000447
 Li              5.06064396      2.53032198      7.59096594      0.00041823      0.00000106     -0.00000106      0.00100000       3      -1       0      -1      32     -0.00000000     -0.00000000      0.00000000
 Li              0.00000000      7.59096594      7.59096594     -0.00053492      0.00000327      0.00000327      0.00100000       3       0      -1      -1      32     -0.00125440      0.00000447      0.00000447
 Li              5.06064396      7.59096594      7.59096594      0.00041823     -0.00000106     -0.00000106      0.00100000       3      -1      -1      -1      32      0.00000000     -0.00000000     -0.00000000
 Li              2.53032198      0.00000000      2.53032198      0.00031953     -0.00000000      0.00241386      0.00100000       3       0       0       0      32      0.00101058     -0.00000000      0.00227398
 Li              7.59096594      0.00000000      2.53032198      0.00032463     -0.00000000     -0.00239677      0.00100000       3      -1       0       0      32      0.00100445      0.00000000     -0.00224998
 Li              2.53032198      5.06064396      2.53032198     -0.00001181     -0.00000000     -0.00008421      0.00100000       3       0      -1       0      32     -0.00000000      0.00000000     -0.00000000
 Li              7.59096594      5.06064396      2.53032198     -0.00001106     -0.00000000      0.00008041      0.00100000       3      -1      -1       0      32      0.00000000      0.00000000      0.00000000
 Li              2.53032198      0.00000000      7.59096594      0.00031953     -0.00000000     -0.00241386      0.00100000       3       0       0      -1      32      0.00101058     -0.00000000     -0.00227398
 Li              7.59096594      0.00000000      7.59096594      0.00032463     -0.00000000      0.00239677      0.00100000       3      -1       0      -1      32      0.00100445     -0.00000000      0.00224998
 Li              2.53032198      5.06064396      7.59096594     -0.00001181     -0.00000000      0.00008421      0.00100000       3       0      -1      -1      32      0.00000000     -0.00000000     -0.00000000
 Li              7.59096594      5.06064396      7.59096594     -0.00001106     -0.00000000     -0.00008041      0.00100000       3      -1      -1      -1      32      0.00000000      0.00000000     -0.00000000
 Li              2.53032198      2.53032198      0.00000000      0.00031953      0.00241386      0.00000000      0.00100000       3       0       0       0      32      0.00101058      0.00227398      0.00000000
 Li              7.59096594      2.53032198      0.00000000      0.00032463     -0.00239677     -0.00000000      0.00100000       3      -1       0       0      32      0.00100445     -0.00224998     -0.00000000
 Li              2.53032198      7.59096594      0.00000000      0.00031953     -0.00241386     -0.00000000      0.00100000       3       0      -1       0      32      0.00101058     -0.00227398      0.00000000
 Li              7.59096594      7.59096594      0.00000000      0.00032463      0.00239677      0.00000000      0.00100000       3      -1      -1       0      32      0.00100445      0.00224998     -0.00000000
 Li              2.53032198      2.53032198      5.06064396     -0.00001181     -0.00008421     -0.00000000      0.00100000       3       0       0      -1      32     -0.00000000      0.00000000     -0.00000000
 Li              7.59096594      2.53032198      5.06064396     -0.00001106      0.00008041      0.00000000      0.00100000       3      -1       0      -1      32      0.00000000     -0.00000000      0.00000000
 Li              2.53032198      7.59096594      5.06064396     -0.00001181      0.00008421      0.00000000      0.00100000       3       0      -1      -1      32     -0.00000000      0.00000000     -0.00000000
 Li              7.59096594      7.59096594      5.06064396     -0.00001106     -0.00008041     -0.00000000      0.00100000       3      -1      -1      -1      32     -0.00000000     -0.00000000     -0.00000000
 Cl              2.53032198      0.00000000      0.00000000      0.00346346     -0.00000000      0.00000000      0.00100000      17       0       0       0      32      0.00335688      0.00000000     -0.00000000
 Cl              7.59096594      0.00000000      0.00000000      0.00301451     -0.00000000      0.00000000      0.00100000      17      -1       0       0      32      0.00284587     -0.00000000     -0.00000000
 Cl              2.53032198      5.06064396      0.00000000      0.00012439     -0.00000000      0.00000000      0.00100000      17       0      -1       0      32      0.00000000      0.00000000     -0.00000000
 Cl              7.59096594      5.06064396      0.00000000      0.00011674     -0.00000000      0.00000000      0.00100000      17      -1      -1       0      32     -0.00000000     -0.00000000     -0.00000000
 Cl              2.53032198      0.00000000      5.06064396      0.00012439     -0.00000000      0.00000000      0.00100000      17       0       0      -1      32     -0.00000000      0.00000000     -0.00000000
 Cl              7.59096594      0.00000000      5.06064396      0.00011674     -0.00000000      0.00000000      0.00100000      17      -1       0      -1      32     -0.00000000     -0.00000000     -0.00000000
 Cl              2.53032198      5.06064396      5.06064396     -0.00000532     -0.00000000      0.00000000      0.00100000      17       0      -1      -1      32     -0.00000000      0.00000000     -0.00000000
 Cl              7.59096594      5.06064396      5.06064396     -0.00000490     -0.00000000      0.00000000      0.00100000      17      -1      -1      -1      32     -0.00000000      0.00000000     -0.00000000
 Cl              2.53032198      2.53032198      2.53032198     -0.00002990     -0.00048259     -0.00048259      0.00100000      17       0       0       0      32      0.00008175     -0.00050655     -0.00050655
 Cl              7.59096594      2.53032198      2.53032198     -0.00003934      0.00047834      0.00047834      0.00100000      17      -1       0       0      32      0.00006718      0.00051707      0.00051707
 Cl              2.53032198      7.59096594      2.53032198     -0.00002990      0.00048259     -0.00048259      0.00100000      17       0      -1       0      32      0.00008175      0.00050655     -0.00050655
 Cl              7.59096594      7.59096594      2.53032198     -0.00003934     -0.00047834      0.00047834      0.00100000      17      -1      -1       0      32      0.00006718     -0.00051707      0.00051707
 Cl              2.53032198      2.53032198      7.59096594     -0.00002990     -0.00048259      0.00048259      0.00100000      17       0       0      -1      32      0.00008175     -0.00050655      0.00050655
 Cl              7.59096594      2.53032198      7.59096594     -0.00003934      0.00047834     -0.00047834      0.00100000      17      -1       0      -1      32      0.00006718      0.00051707     -0.00051707
 Cl              2.53032198      7.59096594      7.59096594     -0.00002990      0.00048259      0.00048259      0.00100000      17       0      -1      -1      32      0.00008175      0.00050655      0.00050655
 Cl              7.59096594      7.59096594      7.59096594     -0.00003934     -0.00047834     -0.00047834      0.00100000      17      -1      -1      -1      32      0.00006718     -0.00051707     -0.00051707
 Cl              0.00000000      0.00000000      2.53032198      0.00190697     -0.00000000     -0.00000735      0.00100000      17       0       0       0      32      0.00178231     -0.00000000     -0.00000260
 Cl              5.06064396      0.00000000      2.53032198     -0.00125373     -0.00000000     -0.00000391      0.00100000      17      -1       0       0      32      0.00000000      0.00000000      0.00000000
 Cl              0.00000000      5.06064396      2.53032198      0.00021210     -0.00000000     -0.00000109      0.00100000      17       0      -1       0      32     -0.00000000     -0.00000000      0.00000000
 Cl              5.06064396      5.06064396      2.53032198     -0.00024829     -0.00000000     -0.00000143      0.00100000      17      -1      -1       0      32      0.00000000      0.00000000      0.00000000
 Cl              0.00000000      0.00000000      7.59096594      0.00190697     -0.00000000      0.00000735      0.00100000      17       0       0      -1      32      0.00178231      0.00000000      0.00000260
 Cl              5.06064396      0.00000000      7.59096594     -0.00125373     -0.00000000      0.00000391      0.00100000      17      -1       0      -1      32     -0.00000000     -0.00000000     -0.00000000
 Cl              0.00000000      5.06064396      7.59096594      0.00021210     -0.00000000      0.00000109      0.00100000      17       0      -1      -1      32      0.00000000     -0.00000000     -0.00000000
 Cl              5.06064396      5.06064396      7.59096594     -0.00024829     -0.00000000      0.00000143      0.00100000      17      -1      -1      -1      32     -0.00000000      0.00000000     -0.00000000
 Cl              0.00000000      2.53032198      0.00000000      0.00190697     -0.00000735      0.00000000      0.00100000      17       0       0       0      32      0.00178231     -0.00000260      0.00000000
 Cl              5.06064396      2.53032198      0.00000000     -0.00125373     -0.00000391     -0.00000000      0.00100000      17      -1       0       0      32      0.00000000      0.00000000      0.00000000
 Cl              0.00000000      7.59096594      0.00000000      0.00190697      0.00000735      0.00000000      0.00100000      17       0      -1       0      32      0.00178231      0.00000260     -0.00000000
 Cl              5.06064396      7.59096594      0.00000000     -0.00125373      0.00000391     -0.00000000      0.00100000      17      -1      -1       0      32      0.00000000     -0.00000000      0.00000000
 Cl              0.00000000      2.53032198      5.06064396      0.00021210     -0.00000109      0.00000000      0.00100000      17       0       0      -1      32      0.00000000     -0.00000000      0.00000000
 Cl              5.06064396      2.53032198      5.06064396     -0.00024829     -0.00000143     -0.00000000      0.00100000      17      -1       0      -1      32     -0.00000000     -0.00000000     -0.00000000
 Cl              0.00000000      7.59096594      5.06064396      0.00021210      0.00000109      0.00000000      0.00100000      17       0      -1      -1      32     -0.00000000      0.00000000      0.00000000
 Cl              5.06064396      7.59096594      5.06064396     -0.00024829      0.00000143     -0.00000000      0.00100000      17      -1      -1      -1      32      0.00000000     -0.00000000     -0.00000000
 64
 REF_virial="-30.33751136       0.00135713       0.00157612       0.00135713     -30.32893087      -0.00097597       0.00157612      -0.00097597     -30.32925995" REF_energy=-241.91300708 config_type=test data_type=rand_struc energy=-242.21468167931485 cutoff=5.00000000 nneightol=1.20000000 pbc="T T T" Lattice="10.67691382       0.00000000       0.00000000       0.00000000      10.67691382       0.00000000       0.00000000       0.00000000      10.67691382" Properties=species:S:1:pos:R:3:REF_forces:R:3:Z:I:1:map_shift:I:3:n_neighb:I:1:force:R:3
 Li             10.66040325      0.00298751      0.00836098      0.00955166     -0.01302145     -0.00944215       3      -1       0       0      32     -0.03519223     -0.02238044     -0.01048933
 Li              5.34360863      0.00541853      0.00446498     -0.01223143     -0.00942462      0.00725955       3      -1       0       0      32     -0.02469943     -0.00566437      0.00352139
 Li              0.00010997      5.32939947      0.01120393      0.00569214      0.02166640     -0.00952854       3       0       0       0      32     -0.01289596      0.04905869      0.00035709
 Li              5.33875426      5.34893619      0.00253086     -0.01463424      0.00483376     -0.00701189       3      -1      -1       0      32     -0.02337089      0.03943861     -0.02027601
 Li              0.00184881     10.67473584      5.34417899     -0.00558010     -0.00303038      0.00686374       3       0      -1      -1      32     -0.01518797      0.00666505      0.01878078
 Li              5.34061247     10.66973658      5.34284299      0.00208595      0.04352573     -0.01414387       3      -1      -1      -1      32     -0.02341481      0.07071267     -0.01940755
 Li             10.65471726      5.32868188      5.34115454      0.01721041      0.01582360     -0.00530620       3      -1       0      -1      32     -0.06450898      0.01466337     -0.03125146
 Li              5.34003869      5.34971358      5.35212955     -0.01248775     -0.04117246      0.00263757       3      -1      -1      -1      32      0.00304257     -0.04647744      0.01004230
 Li              0.00360837      2.67489864      2.65912030      0.00152334     -0.00026623      0.00391272       3       0       0       0      32     -0.00462347     -0.02699144      0.02542322
 Li              5.33772223      2.68649772      2.64251855     -0.00689535     -0.02046126      0.04299956       3       0       0       0      32     -0.01042766      0.00744025      0.02487066
 Li              0.00606032      8.01768857      2.68986565      0.00356014     -0.00717291     -0.01176181       3       0      -1       0      32     -0.00173190      0.00117729      0.03004492