phonopy:
  version: "2.23.1"
  frequency_unit_conversion_factor: 15.633302
  symmetry_tolerance: 1.00000e-04

space_group:
  type: "Fd-3m"
  number: 227
  Hall_symbol: "F 4d 2 3 -1d"

primitive_matrix:
- [  0.000000000000000,  0.500000000000000,  0.500000000000000 ]
- [  0.500000000000000,  0.000000000000000,  0.500000000000000 ]
- [  0.500000000000000,  0.500000000000000,  0.000000000000000 ]

supercell_matrix:
- [   1,   0,   0 ]
- [   0,   1,   0 ]
- [   0,   0,   1 ]

primitive_cell:
  lattice:
  - [     0.000000000000000,     2.730000000000000,     2.730000000000001 ] # a
  - [     2.730000000000000,     0.000000000000000,     2.730000000000001 ] # b
  - [     2.730000000000001,     2.730000000000000,     0.000000000000000 ] # c
  points:
  - symbol: Si # 1
    coordinates: [  0.500000000000000,  0.500000000000000,  0.500000000000000 ]
    mass: 28.085500
  - symbol: Si # 2
    coordinates: [  0.750000000000000,  0.750000000000000,  0.750000000000000 ]
    mass: 28.085500
  reciprocal_lattice: # without 2pi
  - [    -0.183150183150183,     0.183150183150183,     0.183150183150183 ] # a*
  - [     0.183150183150183,    -0.183150183150183,     0.183150183150183 ] # b*
  - [     0.183150183150183,     0.183150183150183,    -0.183150183150183 ] # c*

unit_cell:
  lattice:
  - [     5.460000000000000,     0.000000000000000,     0.000000000000000 ] # a
  - [     0.000000000000001,     5.460000000000000,     0.000000000000000 ] # b
  - [     0.000000000000000,     0.000000000000000,     5.460000000000000 ] # c
  points:
  - symbol: Si # 1
    coordinates: [  0.000000000000000,  0.000000000000000,  0.500000000000000 ]
    mass: 28.085500
    reduced_to: 1
  - symbol: Si # 2
    coordinates: [  0.250000000000000,  0.750000000000000,  0.250000000000000 ]
    mass: 28.085500
    reduced_to: 2
  - symbol: Si # 3
    coordinates: [  0.000000000000000,  0.500000000000000,  0.000000000000000 ]
    mass: 28.085500
    reduced_to: 1
  - symbol: Si # 4
    coordinates: [  0.250000000000000,  0.250000000000000,  0.750000000000000 ]
    mass: 28.085500
    reduced_to: 2
  - symbol: Si # 5
    coordinates: [  0.500000000000000,  0.000000000000000,  0.000000000000000 ]
    mass: 28.085500
    reduced_to: 1
  - symbol: Si # 6
    coordinates: [  0.750000000000000,  0.750000000000000,  0.750000000000000 ]
    mass: 28.085500
    reduced_to: 2
  - symbol: Si # 7
    coordinates: [  0.500000000000000,  0.500000000000000,  0.500000000000000 ]
    mass: 28.085500
    reduced_to: 1
  - symbol: Si # 8
    coordinates: [  0.750000000000000,  0.250000000000000,  0.250000000000000 ]
    mass: 28.085500
    reduced_to: 2

supercell:
  lattice:
  - [     5.460000000000000,     0.000000000000000,     0.000000000000000 ] # a
  - [     0.000000000000001,     5.460000000000000,     0.000000000000000 ] # b
  - [     0.000000000000000,     0.000000000000000,     5.460000000000000 ] # c
  points:
  - symbol: Si # 1
    coordinates: [  0.000000000000000,  0.000000000000000,  0.500000000000000 ]
    mass: 28.085500
    reduced_to: 1
  - symbol: Si # 2
    coordinates: [  0.250000000000000,  0.750000000000000,  0.250000000000000 ]
    mass: 28.085500
    reduced_to: 2
  - symbol: Si # 3
    coordinates: [  0.000000000000000,  0.500000000000000,  0.000000000000000 ]
    mass: 28.085500
    reduced_to: 1
  - symbol: Si # 4
    coordinates: [  0.250000000000000,  0.250000000000000,  0.750000000000000 ]
    mass: 28.085500
    reduced_to: 2
  - symbol: Si # 5
    coordinates: [  0.500000000000000,  0.000000000000000,  0.000000000000000 ]
    mass: 28.085500
    reduced_to: 1
  - symbol: Si # 6
    coordinates: [  0.750000000000000,  0.750000000000000,  0.750000000000000 ]
    mass: 28.085500
    reduced_to: 2
  - symbol: Si # 7
    coordinates: [  0.500000000000000,  0.500000000000000,  0.500000000000000 ]
    mass: 28.085500
    reduced_to: 1
  - symbol: Si # 8
    coordinates: [  0.750000000000000,  0.250000000000000,  0.250000000000000 ]
    mass: 28.085500
    reduced_to: 2

displacements:
- atom:    1
  displacement:
    [   0.0100000000000000,  0.0000000000000000,  0.0000000000000000 ]
  forces:
  - [  -0.1303232600000000, -0.0000000000000000, -0.0000000000000000 ]
  - [   0.0326201200000000, -0.0236482200000000, -0.0236482200000000 ]
  - [  -0.0168791300000000, -0.0000000000000000, -0.0000000000000000 ]
  - [   0.0326201200000000,  0.0236482200000000,  0.0236482200000000 ]
  - [   0.0086579200000000, -0.0000000000000000,  0.0000000000000000 ]
  - [   0.0323231500000000,  0.0230754500000000, -0.0230754500000000 ]
  - [   0.0086579200000000, -0.0000000000000000,  0.0000000000000000 ]
  - [   0.0323231500000000, -0.0230754500000000,  0.0230754500000000 ]
