 64
 REF_virial="-3.07249332      -0.00103147       0.00136362      -0.00103147      -3.09640541       0.00302804       0.00136362       0.00302804      -3.09705440" REF_energy=-244.39678685 config_type=test data_type=rand_struc energy=-244.39247876593066 cutoff=5.00000000 nneightol=1.20000000 pbc="T T T" Lattice="10.16848936       0.00000000       0.00000000       0.00000000      10.16848936       0.00000000       0.00000000       0.00000000      10.16848936" Properties=species:S:1:pos:R:3:REF_forces:R:3:Z:I:1:map_shift:I:3:n_neighb:I:1:force:R:3
 Li             10.15884699      0.00704209      0.00725074      0.02148679     -0.01091882     -0.01891965       3      -1       0       0      32      0.02314143     -0.00891885     -0.02159473
 Li              5.07870916     10.16652440      0.00013829     -0.01489042      0.00457430     -0.01854037       3       0      -1       0      32     -0.00975781      0.00091003     -0.02134155
 Li             10.15269780      5.09364636      0.00274427      0.00383468     -0.00696121     -0.00536161       3      -1      -1       0      32      0.00579700     -0.00765287     -0.01061634
 Li              5.08140198      5.10512272     10.15133532     -0.00140003     -0.01978969      0.02326251       3       0      -1      -1      32      0.00637916     -0.01497749      0.00774825
 Li             10.16564106     10.16781539      5.08890042      0.01655723      0.00376538      0.00565490       3      -1      -1      -1      32      0.00225166      0.01481210     -0.00209529
 Li              5.10760709     10.15851336      5.08754293     -0.04717900      0.01484785     -0.00307826       3      -1      -1      -1      32     -0.04622225      0.02078726     -0.00917073
 Li              0.00298140      5.07597770      5.07481066     -0.01199582      0.00845832     -0.00160931       3       0       0       0      32     -0.01148337      0.01008261     -0.01149825
 Li              5.07822412      5.08542768      5.09506050      0.02573712     -0.00359847     -0.02526098       3       0      -1      -1      32      0.02357439      0.00412314     -0.02758102
 Li              0.01598822      2.54486824      2.53858869     -0.03507238     -0.00340883      0.00103593       3       0       0       0      32     -0.02864052     -0.00176889      0.00292680
 Li              5.06499563      2.55896634      2.52773372      0.02624772     -0.00377968      0.02069438       3       0       0       0      32      0.01465083     -0.00732781      0.02612894
 Li             10.14934474      7.61305006      2.54811707      0.01184241      0.01998025     -0.01359888       3      -1      -1       0      32      0.01264548      0.01426100     -0.00782638
 Li              5.08648449      7.62053895      2.53545954     -0.00702980      0.00204903      0.00565799       3      -1      -1       0      32      0.00006963     -0.00562101      0.01694926
 Li              0.00449356      2.56570063      7.63000805      0.00268648     -0.04033511     -0.01095645       3       0       0      -1      32     -0.00653153     -0.04072363     -0.00150605
 Li              5.09230575      2.55661671      7.62225254     -0.02355761     -0.02466761     -0.00157850       3      -1       0      -1      32     -0.02691235     -0.02839976      0.00910433
 Li             10.15276237      7.62841211      7.62005595      0.01908582      0.01729419      0.01071546       3      -1      -1      -1      32      0.02810127      0.00279399      0.01314320
 Li              5.06300372      7.62955911      7.60807920      0.02054367      0.00416543      0.02218382       3       0      -1      -1      32      0.02697000     -0.00311276      0.02648825
 Li              2.54626925     10.16388009      2.54421105     -0.01564654     -0.00703707      0.00309867       3       0      -1       0      32     -0.02207017      0.00117539      0.00308166
 Li              7.62796022      0.00228984      2.53557495     -0.01582809     -0.00595874      0.01656193       3      -1       0       0      32     -0.01550146      0.00201255      0.01891332
 Li              2.54890706      5.07782053      2.53645666     -0.00607355      0.01968796     -0.00876102       3       0       0       0      32     -0.01486237      0.02094322      0.00506609
 Li              7.63353143      5.07318096      2.53386888     -0.02780434      0.01125574      0.00706557       3      -1       0       0      32     -0.03206429      0.01036624      0.01420068
 Li              2.54439286     10.15393368      7.63383303     -0.00656268      0.03083937     -0.00996144       3       0      -1      -1      32     -0.01063447      0.03497820     -0.00688048
 Li              7.62132731     10.16459747      7.62914739      0.00174153      0.00532560     -0.00295403       3      -1      -1      -1      32      0.00541911      0.00854007      0.00574640
 Li              2.52951728      5.08769627      7.60373715      0.01865079     -0.00565391      0.02557750       3       0      -1      -1      32      0.01372674      0.00139656      0.03048503
 Li              7.62281954      5.08713416      7.61805143     -0.00530963     -0.00548458      0.00316021       3      -1      -1      -1      32      0.00143398     -0.00347470      0.01280677
 Li              2.54700454      2.55878321      0.00319402     -0.01421405     -0.02454450     -0.02281309       3       0       0       0      32     -0.01013734     -0.02567892     -0.02657473
 Li              7.60287659      2.53244743      0.02222700      0.02009253      0.02491373     -0.02509314       3      -1       0       0      32      0.01436256      0.01151378     -0.03153858
 Li              2.55764810      7.62389953      0.00611472     -0.02750250      0.00489735     -0.00538768       3       0      -1       0      32     -0.04468038     -0.00096178     -0.00609855
 Li              7.64373144      7.64627387      0.00468696     -0.02762612     -0.03971733     -0.00351788       3      -1      -1       0      32     -0.04172620     -0.03312855     -0.01196585
 Li              2.54727563      2.54360857      5.08392702      0.00156417     -0.01707944      0.02294042       3       0       0       0      32      0.00701086     -0.02603908      0.01332353
 Li              7.60844099      2.53194317      5.09217529      0.01441615      0.02406798     -0.00966958       3      -1       0      -1      32      0.01875517      0.01349303     -0.02555152
 Li              2.53205218      7.63243080      5.07671471      0.01348365      0.00861239      0.00997954       3       0      -1       0      32      0.00696098      0.00461895      0.00041900
 Li              7.62593740      7.62975913      5.09736854     -0.00713933     -0.01670848     -0.02192216       3      -1      -1      -1      32     -0.00076072     -0.01498241     -0.02999703
 Cl              2.54095856     10.16235207     10.15655928     -0.01122030      0.02849918      0.06163891      17       0      -1      -1      32     -0.00692149      0.03087001      0.05796568
 Cl              7.61841323     10.16773496      0.00707656     -0.00915358      0.00696205     -0.01898190      17      -1      -1       0      32     -0.00720180      0.00723609     -0.01709022
 Cl              2.52432575      5.07957023      0.00069552      0.01347739      0.01886579     -0.00254321      17       0       0       0      32      0.01827921      0.01659650      0.00054529
 Cl              7.61559401      5.07713833     10.16776130      0.02959391      0.01310915     -0.02907616      17      -1       0      -1      32      0.03071755      0.01430887     -0.02108351
 Cl              2.55647415      0.00025625      5.10199673     -0.04024489     -0.01369755     -0.07150421      17       0       0      -1      32     -0.03807341     -0.01613170     -0.06458858
 Cl              7.61138558     10.16759982      5.09028263      0.03065481     -0.00252590     -0.03072718      17      -1      -1      -1      32      0.02669586     -0.00681814     -0.02407660
 Cl              2.56545333      5.08789730      5.05957226     -0.08394755      0.00569802      0.06398720      17       0      -1       0      32     -0.08050495      0.00241180      0.06459358
 Cl              7.62724354      5.09299833      5.06971981     -0.00514153     -0.03833558      0.05845603      17      -1      -1       0      32     -0.01135097     -0.03877227      0.05889221
 Cl              2.53900417      2.53888510      2.55768125     -0.02577611      0.00479647     -0.05448178      17       0       0       0      32     -0.02657051      0.00375354     -0.05479035
 Cl              7.61732774      2.54434680      2.54531718      0.01770712     -0.01782921     -0.00670384      17      -1       0       0      32      0.02014942     -0.01413979     -0.00565029
 Cl              2.52310167      7.62604814      2.53914521      0.04413447      0.01234521     -0.00099452      17       0      -1       0      32      0.04899572      0.01675177     -0.00498816
 Cl              7.62510369      7.61201440      2.54560393     -0.03786707      0.06156208     -0.00712007      17      -1      -1       0      32     -0.03395608      0.06040440     -0.00983437
 Cl              2.54654919      2.53744494      7.62420561     -0.01884351      0.04282179     -0.00346045      17       0       0      -1      32     -0.01740823      0.03970414     -0.00687087
 Cl              7.61942672      2.52872810      7.62666953      0.01463727      0.03986008     -0.00078975      17      -1       0      -1      32      0.00946084      0.03968994     -0.00617879
 Cl              2.55231778      7.64642670      7.64382835     -0.05603827     -0.09429392     -0.05289768      17       0      -1      -1      32     -0.05125147     -0.08411198     -0.05311845
 Cl              7.61889460      7.63190305      7.61611606      0.01104725     -0.01609957      0.03159015      17      -1      -1      -1      32      0.00996326     -0.00993639      0.02955218
 Cl             10.14876534     10.16366777      2.54816252      0.04419317      0.02650722     -0.00901358      17      -1      -1       0      32      0.04746427      0.02143789     -0.00702463
 Cl              5.06514470      0.01287809      2.52416458      0.04591662     -0.04933030      0.03959343      17       0       0       0      32      0.04603956     -0.05017134      0.03847362
 Cl             10.15054289      5.09798821      2.53877152      0.05362073     -0.06903929     -0.00186973      17      -1      -1       0      32      0.05279667     -0.06672407     -0.00517311
 Cl              5.07955314      5.09366243      2.53706148     -0.00346104     -0.01143040     -0.00649026      17       0      -1       0      32     -0.00159167     -0.01300081     -0.01174624
 Cl              0.00726935     10.16234993      7.62243212     -0.04767244      0.01050588      0.00243984      17       0      -1      -1      32     -0.04138464      0.00519190      0.00116671
 Cl              5.06965015     10.16657931      7.61467143      0.06149583      0.02052798      0.05083858      17       0      -1      -1      32      0.05831463      0.02274067      0.04863715
 Cl              0.00533469      5.09701356      7.61880848     -0.01722827     -0.01620742     -0.00879649      17       0      -1      -1      32     -0.01455143     -0.01279113     -0.00978962
 Cl              5.07552256      5.08014566      7.63111865      0.01211855      0.01536531     -0.02740440      17       0       0      -1      32      0.00831818      0.01080174     -0.03054604
 Cl             10.16252727      2.53757357     10.14774340      0.00362379      0.01474282      0.06802610      17      -1       0      -1      32      0.00584407      0.01669522      0.06851079
 Cl              5.07344991      2.56410997     10.16780502      0.00718643     -0.05425881     -0.00027600      17       0       0      -1      32      0.00904329     -0.04936022     -0.00036176
 Cl             10.14961298      7.62544525      0.00135922      0.02982601      0.01167804     -0.01347700      17      -1      -1       0      32      0.02753884      0.01333680     -0.01432784
 Cl              5.08736569      7.61423998     10.15451450     -0.00012323      0.04308978      0.03813041      17      -1      -1      -1      32     -0.00165516      0.04302667      0.03772836
 Cl              0.00208861      2.54408913      5.08302446     -0.01173671      0.00394221      0.00099183      17       0       0       0      32     -0.00760770      0.00545801      0.00694362
 Cl              5.08259220      2.55061903      5.08182143      0.01068934     -0.01443657     -0.00572158      17       0       0       0      32      0.01515946     -0.00987193      0.00084272
 Cl             10.16360310      7.62305962      5.07607328      0.02186871      0.00988446      0.03276421      17      -1      -1       0      32      0.02373323      0.01065316      0.03864671
 Cl              5.08245014      7.61401109      5.09889859     -0.00647573      0.03762959     -0.06473169      17       0      -1      -1      32     -0.00774959      0.03672104     -0.05995363
 64
 REF_virial="-0.01658071      -0.00000000      -0.00000000      -0.00000000      -0.01736275      -0.00000000      -0.00000000      -0.00000000      -0.01736275" REF_energy=-244.43352591 config_type=test data_type=phonon energy=-244.43350324270736 cutoff=5.00000000 nneightol=1.20000000 pbc="T T T" Lattice="10.12128792       0.00000000       0.00000000       0.00000000      10.12128792       0.00000000       0.00000000       0.00000000      10.12128792" Properties=species:S:1:pos:R:3:REF_forces:R:3:force_atom_sigma:R:1:Z:I:1:map_shift:I:3:n_neighb:I:1:force:R:3
 Li              0.01000003      0.00000000      0.00000000     -0.01620734     -0.00000000     -0.00000000      0.00162073       3       0       0       0      32     -0.01694882      0.00000000     -0.00000000
 Li              5.06064396      0.00000000      0.00000000      0.00470080     -0.00000000      0.00000000      0.00100000       3      -1       0       0      32     -0.00000000      0.00000000      0.00000000
 Li              0.00000000      5.06064396      0.00000000      0.00017782     -0.00000000      0.00000000      0.00100000       3       0      -1       0      32     -0.00000000     -0.00000000      0.00000000
 Li              5.06064396      5.06064396      0.00000000      0.00000338     -0.00000000      0.00000000      0.00100000       3      -1      -1       0      32      0.00000000      0.00000000     -0.00000000
 Li              0.00000000      0.00000000      5.06064396      0.00017782     -0.00000000      0.00000000      0.00100000       3       0       0      -1      32      0.00000000     -0.00000000      0.00000000
 Li              5.06064396      0.00000000      5.06064396      0.00000338     -0.00000000      0.00000000      0.00100000       3      -1       0      -1      32     -0.00000000      0.00000000      0.00000000
 Li              0.00000000      5.06064396      5.06064396     -0.00018352     -0.00000000     -0.00000000      0.00100000       3       0      -1      -1      32     -0.00000000      0.00000000     -0.00000000
 Li              5.06064396      5.06064396      5.06064396      0.00016801     -0.00000000      0.00000000      0.00100000       3      -1      -1      -1      32     -0.00000000      0.00000000     -0.00000000
 Li              0.00000000      2.53032198      2.53032198     -0.00053492     -0.00000327     -0.00000327      0.00100000       3       0       0       0      32     -0.00125552     -0.00000447     -0.00000447
 Li              5.06064396      2.53032198      2.53032198      0.00041823      0.00000106      0.00000106      0.00100000       3      -1       0       0      32      0.00000000      0.00000000      0.00000000
 Li              0.00000000      7.59096594      2.53032198     -0.00053492      0.00000327     -0.00000327      0.00100000       3       0      -1       0      32     -0.00125552      0.00000447     -0.00000447
 Li              5.06064396      7.59096594      2.53032198      0.00041823     -0.00000106      0.00000106      0.00100000       3      -1      -1       0      32     -0.00000000      0.00000000     -0.00000000
 Li              0.00000000      2.53032198      7.59096594     -0.00053492     -0.00000327      0.00000327      0.00100000       3       0       0      -1      32     -0.00125552     -0.00000447      0.00000447
 Li              5.06064396      2.53032198      7.59096594      0.00041823      0.00000106     -0.00000106      0.00100000       3      -1       0      -1      32      0.00000000      0.00000000     -0.00000000
 Li              0.00000000      7.59096594      7.59096594     -0.00053492      0.00000327      0.00000327      0.00100000       3       0      -1      -1      32     -0.00125552      0.00000447      0.00000447
 Li              5.06064396      7.59096594      7.59096594      0.00041823     -0.00000106     -0.00000106      0.00100000       3      -1      -1      -1      32      0.00000000      0.00000000     -0.00000000
 Li              2.53032198      0.00000000      2.53032198      0.00031953     -0.00000000      0.00241386      0.00100000       3       0       0       0      32      0.00100933      0.00000000      0.00227386
 Li              7.59096594      0.00000000      2.53032198      0.00032463     -0.00000000     -0.00239677      0.00100000       3      -1       0       0      32      0.00100359      0.00000000     -0.00225024
 Li              2.53032198      5.06064396      2.53032198     -0.00001181     -0.00000000     -0.00008421      0.00100000       3       0      -1       0      32     -0.00000000     -0.00000000      0.00000000
 Li              7.59096594      5.06064396      2.53032198     -0.00001106     -0.00000000      0.00008041      0.00100000       3      -1      -1       0      32     -0.00000000     -0.00000000     -0.00000000
 Li              2.53032198      0.00000000      7.59096594      0.00031953     -0.00000000     -0.00241386      0.00100000       3       0       0      -1      32      0.00100933     -0.00000000     -0.00227386
 Li              7.59096594      0.00000000      7.59096594      0.00032463     -0.00000000      0.00239677      0.00100000       3      -1       0      -1      32      0.00100359      0.00000000      0.00225024
 Li              2.53032198      5.06064396      7.59096594     -0.00001181     -0.00000000      0.00008421      0.00100000       3       0      -1      -1      32      0.00000000     -0.00000000     -0.00000000
 Li              7.59096594      5.06064396      7.59096594     -0.00001106     -0.00000000     -0.00008041      0.00100000       3      -1      -1      -1      32      0.00000000     -0.00000000      0.00000000
 Li              2.53032198      2.53032198      0.00000000      0.00031953      0.00241386      0.00000000      0.00100000       3       0       0       0      32      0.00100933      0.00227386      0.00000000
 Li              7.59096594      2.53032198      0.00000000      0.00032463     -0.00239677     -0.00000000      0.00100000       3      -1       0       0      32      0.00100359     -0.00225024      0.00000000
 Li              2.53032198      7.59096594      0.00000000      0.00031953     -0.00241386     -0.00000000      0.00100000       3       0      -1       0      32      0.00100933     -0.00227386     -0.00000000
 Li              7.59096594      7.59096594      0.00000000      0.00032463      0.00239677      0.00000000      0.00100000       3      -1      -1       0      32      0.00100359      0.00225024      0.00000000
 Li              2.53032198      2.53032198      5.06064396     -0.00001181     -0.00008421     -0.00000000      0.00100000       3       0       0      -1      32     -0.00000000      0.00000000      0.00000000
 Li              7.59096594      2.53032198      5.06064396     -0.00001106      0.00008041      0.00000000      0.00100000       3      -1       0      -1      32      0.00000000      0.00000000     -0.00000000
 Li              2.53032198      7.59096594      5.06064396     -0.00001181      0.00008421      0.00000000      0.00100000       3       0      -1      -1      32      0.00000000     -0.00000000     -0.00000000
 Li              7.59096594      7.59096594      5.06064396     -0.00001106     -0.00008041     -0.00000000      0.00100000       3      -1      -1      -1      32      0.00000000     -0.00000000     -0.00000000
 Cl              2.53032198      0.00000000      0.00000000      0.00346346     -0.00000000      0.00000000      0.00100000      17       0       0       0      32      0.00335623     -0.00000000     -0.00000000
 Cl              7.59096594      0.00000000      0.00000000      0.00301451     -0.00000000      0.00000000      0.00100000      17      -1       0       0      32      0.00284462      0.00000000     -0.00000000
 Cl              2.53032198      5.06064396      0.00000000      0.00012439     -0.00000000      0.00000000      0.00100000      17       0      -1       0      32     -0.00000000      0.00000000      0.00000000
 Cl              7.59096594      5.06064396      0.00000000      0.00011674     -0.00000000      0.00000000      0.00100000      17      -1      -1       0      32     -0.00000000     -0.00000000      0.00000000
 Cl              2.53032198      0.00000000      5.06064396      0.00012439     -0.00000000      0.00000000      0.00100000      17       0       0      -1      32     -0.00000000     -0.00000000     -0.00000000
 Cl              7.59096594      0.00000000      5.06064396      0.00011674     -0.00000000      0.00000000      0.00100000      17      -1       0      -1      32      0.00000000      0.00000000     -0.00000000
 Cl              2.53032198      5.06064396      5.06064396     -0.00000532     -0.00000000      0.00000000      0.00100000      17       0      -1      -1      32      0.00000000     -0.00000000     -0.00000000
 Cl              7.59096594      5.06064396      5.06064396     -0.00000490     -0.00000000      0.00000000      0.00100000      17      -1      -1      -1      32      0.00000000     -0.00000000      0.00000000
 Cl              2.53032198      2.53032198      2.53032198     -0.00002990     -0.00048259     -0.00048259      0.00100000      17       0       0       0      32      0.00008175     -0.00050675     -0.00050675
 Cl              7.59096594      2.53032198      2.53032198     -0.00003934      0.00047834      0.00047834      0.00100000      17      -1       0       0      32      0.00006691      0.00051755      0.00051755
 Cl              2.53032198      7.59096594      2.53032198     -0.00002990      0.00048259     -0.00048259      0.00100000      17       0      -1       0      32      0.00008175      0.00050675     -0.00050675
 Cl              7.59096594      7.59096594      2.53032198     -0.00003934     -0.00047834      0.00047834      0.00100000      17      -1      -1       0      32      0.00006691     -0.00051755      0.00051755
 Cl              2.53032198      2.53032198      7.59096594     -0.00002990     -0.00048259      0.00048259      0.00100000      17       0       0      -1      32      0.00008175     -0.00050675      0.00050675
 Cl              7.59096594      2.53032198      7.59096594     -0.00003934      0.00047834     -0.00047834      0.00100000      17      -1       0      -1      32      0.00006691      0.00051755     -0.00051755
 Cl              2.53032198      7.59096594      7.59096594     -0.00002990      0.00048259      0.00048259      0.00100000      17       0      -1      -1      32      0.00008175      0.00050675      0.00050675
 Cl              7.59096594      7.59096594      7.59096594     -0.00003934     -0.00047834     -0.00047834      0.00100000      17      -1      -1      -1      32      0.00006691     -0.00051755     -0.00051755
 Cl              0.00000000      0.00000000      2.53032198      0.00190697     -0.00000000     -0.00000735      0.00100000      17       0       0       0      32      0.00178094      0.00000000     -0.00000260
 Cl              5.06064396      0.00000000      2.53032198     -0.00125373     -0.00000000     -0.00000391      0.00100000      17      -1       0       0      32     -0.00000000      0.00000000     -0.00000000
 Cl              0.00000000      5.06064396      2.53032198      0.00021210     -0.00000000     -0.00000109      0.00100000      17       0      -1       0      32      0.00000000      0.00000000      0.00000000
 Cl              5.06064396      5.06064396      2.53032198     -0.00024829     -0.00000000     -0.00000143      0.00100000      17      -1      -1       0      32     -0.00000000     -0.00000000     -0.00000000
 Cl              0.00000000      0.00000000      7.59096594      0.00190697     -0.00000000      0.00000735      0.00100000      17       0       0      -1      32      0.00178094      0.00000000      0.00000260
 Cl              5.06064396      0.00000000      7.59096594     -0.00125373     -0.00000000      0.00000391      0.00100000      17      -1       0      -1      32     -0.00000000     -0.00000000      0.00000000
 Cl              0.00000000      5.06064396      7.59096594      0.00021210     -0.00000000      0.00000109      0.00100000      17       0      -1      -1      32     -0.00000000     -0.00000000      0.00000000
 Cl              5.06064396      5.06064396      7.59096594     -0.00024829     -0.00000000      0.00000143      0.00100000      17      -1      -1      -1      32     -0.00000000      0.00000000     -0.00000000
 Cl              0.00000000      2.53032198      0.00000000      0.00190697     -0.00000735      0.00000000      0.00100000      17       0       0       0      32      0.00178094     -0.00000260      0.00000000
 Cl              5.06064396      2.53032198      0.00000000     -0.00125373     -0.00000391     -0.00000000      0.00100000      17      -1       0       0      32      0.00000000      0.00000000      0.00000000
 Cl              0.00000000      7.59096594      0.00000000      0.00190697      0.00000735      0.00000000      0.00100000      17       0      -1       0      32      0.00178094      0.00000260      0.00000000
 Cl              5.06064396      7.59096594      0.00000000     -0.00125373      0.00000391     -0.00000000      0.00100000      17      -1      -1       0      32     -0.00000000     -0.00000000      0.00000000
 Cl              0.00000000      2.53032198      5.06064396      0.00021210     -0.00000109      0.00000000      0.00100000      17       0       0      -1      32      0.00000000      0.00000000     -0.00000000
 Cl              5.06064396      2.53032198      5.06064396     -0.00024829     -0.00000143     -0.00000000      0.00100000      17      -1       0      -1      32     -0.00000000     -0.00000000     -0.00000000
 Cl              0.00000000      7.59096594      5.06064396      0.00021210      0.00000109      0.00000000      0.00100000      17       0      -1      -1      32      0.00000000     -0.00000000     -0.00000000
 Cl              5.06064396      7.59096594      5.06064396     -0.00024829      0.00000143     -0.00000000      0.00100000      17      -1      -1      -1      32     -0.00000000     -0.00000000     -0.00000000
 64
 REF_virial="-30.33751136       0.00135713       0.00157612       0.00135713     -30.32893087      -0.00097597       0.00157612      -0.00097597     -30.32925995" REF_energy=-241.91300708 config_type=test data_type=rand_struc energy=-242.21542417997884 cutoff=5.00000000 nneightol=1.20000000 pbc="T T T" Lattice="10.67691382       0.00000000       0.00000000       0.00000000      10.67691382       0.00000000       0.00000000       0.00000000      10.67691382" Properties=species:S:1:pos:R:3:REF_forces:R:3:Z:I:1:map_shift:I:3:n_neighb:I:1:force:R:3
 Li             10.66040325      0.00298751      0.00836098      0.00955166     -0.01302145     -0.00944215       3      -1       0       0      32     -0.03532623     -0.02248278     -0.01026052
 Li              5.34360863      0.00541853      0.00446498     -0.01223143     -0.00942462      0.00725955       3      -1       0       0      32     -0.02433891     -0.00540050      0.00330050
 Li              0.00010997      5.32939947      0.01120393      0.00569214      0.02166640     -0.00952854       3       0       0       0      32     -0.01297200      0.04850010      0.00065035
 Li              5.33875426      5.34893619      0.00253086     -0.01463424      0.00483376     -0.00701189       3      -1      -1       0      32     -0.02308829      0.03955822     -0.02005293
 Li              0.00184881     10.67473584      5.34417899     -0.00558010     -0.00303038      0.00686374       3       0      -1      -1      32     -0.01473084      0.00661874      0.01854622
 Li              5.34061247     10.66973658      5.34284299      0.00208595      0.04352573     -0.01414387       3      -1      -1      -1      32     -0.02311437      0.06981834     -0.01903531
 Li             10.65471726      5.32868188      5.34115454      0.01721041      0.01582360     -0.00530620       3      -1       0      -1      32     -0.06480709      0.01404471     -0.03104486
 Li              5.34003869      5.34971358      5.35212955     -0.01248775     -0.04117246      0.00263757       3      -1      -1      -1      32      0.00311637     -0.04566822      0.01031085
 Li              0.00360837      2.67489864      2.65912030      0.00152334     -0.00026623      0.00391272       3       0       0       0      32     -0.00444235     -0.02668342      0.02499580
 Li              5.33772223      2.68649772      2.64251855     -0.00689535     -0.02046126      0.04299956       3       0       0       0      32     -0.01006443      0.00794745      0.02346969
 Li              0.00606032      8.01768857      2.68986565      0.00356014     -0.00717291     -0.01176181       3       0      -1       0      32     -0.00121330      0.00165585      0.03028455