 1
 REF_virial="-0.00064487      -0.00000000      -0.00000000      -0.00000000      -0.00064487      -0.00000000      -0.00000000      -0.00000000      -0.00064487" REF_energy=-0.27567309 config_type=IsolatedAtom data_type=iso_atoms energy=-.27567309000000001 cutoff=5.00000000 nneightol=1.20000000 pbc="T T T" Lattice="20.00000000       0.00000000       0.00000000       0.00000000      20.00000000       0.00000000       0.00000000       0.00000000      20.00000000" Properties=species:S:1:pos:R:3:REF_forces:R:3:Z:I:1:map_shift:I:3:n_neighb:I:1:force:R:3
 Cl             10.00000000     10.00000000     10.00000000     -0.00000000      0.00000000      0.00000000      17      -1      -1      -1       0      0.00000000      0.00000000      0.00000000
 1
 REF_virial="-0.02475762      -0.00000000      -0.00000000      -0.00000000      -0.02475762      -0.00000000      -0.00000000      -0.00000000      -0.02475762" REF_energy=-0.28663766 config_type=IsolatedAtom data_type=iso_atoms energy=-.28663766000000002 cutoff=5.00000000 nneightol=1.20000000 pbc="T T T" Lattice="20.00000000       0.00000000       0.00000000       0.00000000      20.00000000       0.00000000       0.00000000       0.00000000      20.00000000" Properties=species:S:1:pos:R:3:REF_forces:R:3:Z:I:1:map_shift:I:3:n_neighb:I:1:force:R:3
 Li             10.00000000     10.00000000     10.00000000      0.00000000      0.00000000     -0.00000000       3      -1      -1      -1       0      0.00000000      0.00000000      0.00000000
 64
 REF_virial="15.31948481       0.00331087       0.00456197       0.00331087      15.30964083      -0.00105156       0.00456197      -0.00105156      15.32334650" REF_energy=-243.90847635 config_type=test data_type=rand_struc energy=-243.90852699381475 cutoff=5.00000000 nneightol=1.20000000 pbc="T T T" Lattice="9.91427712       0.00000000       0.00000000       0.00000000       9.91427712       0.00000000       0.00000000       0.00000000       9.91427712" Properties=species:S:1:pos:R:3:REF_forces:R:3:Z:I:1:map_shift:I:3:n_neighb:I:1:force:R:3
 Li              0.01448238      9.89669465      9.90569641     -0.03271956      0.04525130      0.04435419       3       0      -1      -1      32     -0.04516934      0.03138293      0.04885694
 Li              4.96332081      0.00491639      9.90916542      0.00092354     -0.02342566      0.01728165       3      -1       0      -1      32     -0.00691536     -0.02427905      0.01613135
 Li              0.00533150      4.97999533      9.90402596      0.00639067     -0.05105727      0.01869917       3       0      -1      -1      32     -0.00310694     -0.04606699      0.01914470
 Li              4.96260123      4.95575235      0.00253716     -0.01711042      0.01524783     -0.00788185       3      -1       0       0      32     -0.01872425      0.01241896     -0.00609737
 Li              9.91386469      9.90039227      4.95658812     -0.00232238      0.04489079      0.00422954       3      -1      -1       0      32      0.00257624      0.04783785      0.01124521
 Li              4.94847903      9.90329944      4.95818640      0.02338293      0.03702372     -0.00085562       3       0      -1      -1      32      0.02811916      0.03005169      0.00374334
 Li              9.89995773      4.95370911      4.96679437      0.03235020     -0.01484770     -0.02379900       3      -1       0      -1      32      0.04459028     -0.00679149     -0.01406157
 Li              4.94324717      4.97011109      4.95294165      0.03694197     -0.04634983     -0.00807465       3       0      -1       0      32      0.05222547     -0.04220142     -0.00179355
 Li              0.00581740      2.49020587      2.47718703     -0.00132607     -0.05361209      0.00382113       3       0       0       0      32     -0.00117666     -0.05073035     -0.00204324
 Li              4.95126167      2.48743750      2.47529202      0.01186504     -0.02643365      0.02018680       3       0       0       0      32      0.01360522     -0.02929411      0.01870428
 Li              0.01687945      7.42226953      2.48033283     -0.05818730      0.02243418      0.00660288       3       0      -1       0      32     -0.05540940      0.01609555      0.02045099
 Li              4.94413599      7.42898318      2.48806051      0.02929209      0.01129510     -0.02585523       3       0      -1       0      32      0.02640776      0.00961609     -0.01489613
 Li              9.90963288      2.48351997      7.45412976      0.01237664     -0.01135657     -0.02391117       3      -1       0      -1      32      0.01599479     -0.00950138     -0.02959452
 Li              4.95253050      2.48557144      7.44068659      0.00956278     -0.00824937     -0.01836841       3       0       0      -1      32      0.01540834     -0.00797410     -0.01934767
 Li              9.90987845      7.43212056      7.42745728      0.01731370      0.02120060      0.03246429       3      -1      -1      -1      32      0.01745897      0.01912185      0.03637918
 Li              4.95982374      7.43130431      7.42293776     -0.01287148      0.02328475      0.05435438       3      -1      -1      -1      32     -0.00615347      0.02297966      0.05450799
 Li              2.49184886      9.90269675      2.45454778     -0.02995853      0.03744644      0.04309858       3       0      -1       0      32     -0.03117609      0.04635053      0.06349249
 Li              7.43344461      0.01210315      2.47670678      0.01906274     -0.02337466     -0.00251466       3      -1       0       0      32      0.01571469     -0.02881357      0.01270168
 Li              2.48231618      4.94392798      2.47672027     -0.00651955      0.00197821     -0.01957774       3       0       0       0      32     -0.01028349      0.00820373     -0.01463915
 Li              7.43370654      4.95421653      2.48097121      0.00153598      0.00659273     -0.00271946       3      -1       0       0      32      0.00530088     -0.00465065     -0.00997830
 Li              2.48758770      9.90587368      7.42658809     -0.03231618      0.01455644      0.02079545       3       0      -1      -1      32     -0.03889010      0.01158532      0.03863603
 Li              7.44468928      9.91151332      7.42041507     -0.02167614      0.01831150      0.02364787       3      -1      -1      -1      32     -0.02803057      0.01365206      0.03210322
 Li              2.49015738      4.96752307      7.43282060     -0.00827255     -0.01987804      0.00360855       3       0      -1      -1      32     -0.00775458     -0.01664650      0.00186422
 Li              7.42807335      4.96480924      7.44998906      0.02046043     -0.01872470     -0.02110617       3      -1      -1      -1      32      0.02042948     -0.01827959     -0.02534208
 Li              2.49106633      2.47413700      9.89914724     -0.05060270      0.01122890      0.02974461       3       0       0      -1      32     -0.05527657      0.01369708      0.02869377
 Li              7.43658902      2.48145741      9.90072579      0.00673999     -0.03332926      0.03787966       3      -1       0      -1      32      0.00104516     -0.03040967      0.04682437
 Li              2.46694866      7.43169682      0.01572930      0.03317147      0.00338132     -0.02797882       3       0      -1       0      32      0.04303859      0.00685342     -0.02632172
 Li              7.42279301      7.43218649      0.00892860      0.00958555      0.01260833      0.01393638       3      -1      -1       0      32      0.02146457      0.01396295      0.01254927
 Li              2.47454617      2.47558290      4.96428745     -0.00085619     -0.00240978     -0.01963360       3       0       0      -1      32      0.00274447     -0.00076786     -0.01184451
 Li              7.41953904      2.49659225      4.95557637      0.02377845     -0.05768778      0.00929156       3      -1       0       0      33      0.03084002     -0.05507237      0.02151239
 Li              2.48195263      7.42637157      4.94374745     -0.00031289      0.01890713      0.03988360       3       0      -1       0      32     -0.00798627      0.02126961      0.03527764
 Li              7.43501533      7.42230572      4.95663967      0.01355193      0.02668926     -0.00706981       3      -1      -1       0      32      0.01113935      0.01836670     -0.00747083
 Cl              2.47213630      9.90756436      0.00068240      0.04210059      0.00821310     -0.00625445      17       0      -1       0      32      0.04037154      0.00803291     -0.00825697
 Cl              7.44356064      9.90144190      9.91058098     -0.04409376      0.05596804      0.01007984      17      -1      -1      -1      32     -0.04256686      0.06804473      0.01301182
 Cl              2.48391734      4.96664139      0.00051534     -0.02324529     -0.02849284     -0.00889780      17       0      -1       0      32     -0.02706821     -0.03018618     -0.00192112
 Cl              7.43616677      4.94938401      0.00159461      0.01269596      0.02394256      0.00014953      17      -1       0       0      32      0.01142138      0.03020440      0.00278153
 Cl              2.47882646      0.00887536      4.96636964     -0.00923628     -0.05000812     -0.03826307      17       0       0      -1      32     -0.01417629     -0.04249553     -0.04465672
 Cl              7.44058983      9.90685846      4.95374292     -0.02266854      0.00596819      0.04072339      17      -1      -1       0      32     -0.02134010      0.01745704      0.04016221
 Cl              2.50943520      4.94880482      4.93730069     -0.11534773      0.03122041      0.06813994      17       0       0       0      33     -0.11194446      0.01973153      0.06927249
 Cl              7.42444790      4.94500001      4.95983267      0.02630352      0.07278632      0.00638799      17      -1       0      -1      32      0.00808858      0.07636623      0.00017618
 Cl              2.48049295      2.48660450      2.46717649     -0.00850675     -0.06161515      0.03546241      17       0       0       0      32     -0.01684442     -0.06898823      0.03058849
 Cl              7.44457031      2.47694483      2.49082025     -0.04709024      0.00670862     -0.06671925      17      -1       0       0      32     -0.04872358      0.00017276     -0.07520413
 Cl              2.47220501      7.42947810      2.47727795      0.02623690      0.00540173      0.03360556      17       0      -1       0      32      0.02984957      0.00504041      0.01830352
 Cl              7.42032465      7.43885661      2.48463325      0.07012134     -0.04803849      0.00792868      17      -1      -1       0      32      0.07761934     -0.04580960     -0.00185106
 Cl              2.48149221      2.48855960      7.44323238     -0.01792212     -0.00822204     -0.03282283      17       0       0      -1      32     -0.02521444     -0.00546015     -0.03158003
 Cl              7.43935550      2.48160791      7.44205030     -0.03640643     -0.00235342     -0.01388904      17      -1       0      -1      32     -0.03678275     -0.01008020     -0.01798642
 Cl              2.48000249      7.42555929      7.45477587      0.00472577      0.03222907     -0.07683243      17       0      -1      -1      32      0.00493376      0.02930968     -0.07995473
 Cl              7.43583187      7.43857366      7.44609592     -0.00466713     -0.02024467     -0.03577102      17      -1      -1      -1      32     -0.00674672     -0.01680236     -0.03959280
 Cl              0.00100075      9.90106853      2.48540091      0.01919511      0.02927259     -0.01593268      17       0      -1       0      32      0.01735956      0.04281012     -0.03206404
 Cl              4.96093305      9.90572159      2.48464941     -0.02739141      0.03034581     -0.02222054      17      -1      -1       0      32     -0.02749130      0.03892833     -0.03359495
 Cl              0.00206187      4.94169013      2.48078819     -0.01394215      0.07953862      0.01052792      17       0       0       0      32     -0.01692312      0.08276901      0.01233374
 Cl              4.95260873      4.95586388      2.46591579      0.03581617      0.00473658      0.04303777      17       0       0       0      32      0.03764592      0.00351086      0.04444069
 Cl              9.90991553      0.01231333      7.45997720      0.03606278     -0.05422860     -0.09584495      17      -1       0      -1      32      0.04457280     -0.04787046     -0.10795875
 Cl              4.93771709      0.01900478      7.44077840      0.08235885     -0.07321631     -0.01102136      17       0       0      -1      32      0.08888741     -0.07082328     -0.01691232
 Cl              0.01150909      4.95570129      7.42737945     -0.03577149      0.02273152      0.01940499      17       0       0      -1      32     -0.03918011      0.01131544      0.02030162
 Cl              4.96294486      4.95520676      7.43110900     -0.00515941      0.01496222      0.02208650      17      -1       0      -1      32     -0.01573304      0.00431432      0.02982767
 Cl              9.91325109      2.47262795      0.00454837      0.01120014      0.03993787     -0.00112024      17      -1       0       0      32      0.02288702      0.03143625     -0.00020284
 Cl              4.93839820      2.47633579      0.00963271      0.09162205      0.00456508     -0.02714976      17       0       0       0      32      0.10170536     -0.00311415     -0.02421557
 Cl              0.00071224      7.44376924      0.01077454     -0.02654379     -0.06647156     -0.03019290      17       0      -1       0      32     -0.02647424     -0.06389674     -0.03349770
 Cl              4.95810857      7.43640372      0.01694191     -0.01355597     -0.00108400     -0.06906418      17      -1      -1       0      32     -0.01014491      0.00523506     -0.07339557
 Cl              9.90391065      2.47378594      4.95820553      0.04358117      0.01720900      0.02334274      17      -1       0      -1      32      0.04400252      0.00509990      0.01583577
 Cl              4.96004037      2.46824981      4.95095314     -0.01678107      0.03094919      0.02091382      17      -1       0       0      32     -0.01498884      0.02308012      0.00958601
 Cl              0.01347301      7.44366732      4.96766138     -0.03377607     -0.07096803     -0.01780880      17       0      -1      -1      32     -0.03998181     -0.06591506     -0.02811079
 Cl              4.96274042      7.43927133      4.95972014     -0.03314888     -0.01333546      0.01348008      17      -1      -1      -1      32     -0.03906987     -0.00338405      0.00494636
 64
 REF_virial="-18.10383404      -0.00199323       0.00069561      -0.00199323     -18.09331827      -0.00221593       0.00069561      -0.00221593     -18.11536927" REF_energy=-243.63816253 config_type=test data_type=rand_struc energy=-243.63812930589199 cutoff=5.00000000 nneightol=1.20000000 pbc="T T T" Lattice="10.42270159       0.00000000       0.00000000       0.00000000      10.42270159       0.00000000       0.00000000       0.00000000      10.42270159" Properties=species:S:1:pos:R:3:REF_forces:R:3:Z:I:1:map_shift:I:3:n_neighb:I:1:force:R:3
 Li             10.40733801     10.41428682      0.01060062      0.03115830      0.00453354      0.00475949       3      -1      -1       0      32      0.03347725      0.00842733      0.01312464
 Li              5.21144439      0.01673625      0.00586454     -0.02034712     -0.03571102     -0.00507890       3      -1       0       0      32     -0.01695987     -0.02961962     -0.00487500
 Li             10.42225466      5.21425373      0.00270042     -0.01132787     -0.00534047     -0.00120156       3      -1      -1       0      32     -0.01641261     -0.00361385     -0.00493188
 Li              5.20148143      5.20347332     10.41257041      0.01124426      0.02276834      0.00909787       3       0       0      -1      32      0.01173994      0.01820967      0.01415291
 Li              0.00395771     10.41840431      5.20124901     -0.00710468     -0.02269139      0.00290056       3       0      -1       0      32     -0.00951073     -0.00227347      0.00614813
 Li              5.21863512     10.41713493      5.22301786      0.00192515     -0.00071459     -0.00676875       3      -1      -1      -1      32     -0.01014323      0.01834198     -0.00767447
 Li             10.41670249      5.18330424      5.22056947     -0.00848403      0.04617029     -0.00999436       3      -1       0      -1      32     -0.00600063      0.05535083     -0.00720061
 Li              5.18715616      5.18783760      5.20962563      0.02997668      0.02308231     -0.00663302       3       0       0       0      32      0.03143589      0.02998890     -0.00061046
 Li              0.01349563      2.61170608      2.60385382      0.00248760     -0.01217402     -0.00945654       3       0       0       0      32      0.00029914     -0.00313523     -0.00921154
 Li              5.21951604      2.60405581      2.58727328     -0.01756206      0.01260367      0.03541386       3      -1       0       0      32     -0.02313331      0.00956211      0.03284272
 Li             10.41946107      7.80293095      2.60149308      0.00098518      0.01635418      0.02190841       3      -1      -1       0      32     -0.00059545      0.02344195      0.01352651
 Li              5.21504356      7.82577313      2.60639936     -0.00126970     -0.02120356      0.00803603       3      -1      -1       0      32     -0.00006392     -0.01537269     -0.00350601
 Li              0.01577955      2.60286815      7.81267597     -0.00971888      0.00367562      0.01415070       3       0       0      -1      32     -0.01670140     -0.00080956      0.02090546
 Li              5.23182776      2.60701044      7.82535987     -0.01908898      0.00439756     -0.03052868       3      -1       0      -1      32     -0.02949728      0.00240120     -0.02358553
 Li              0.01687613      7.83201331      7.82771394     -0.03365116     -0.01018313     -0.02894459       3       0      -1      -1      32     -0.03554689     -0.01444595     -0.02865365
 Li              5.21299727      7.82770383      7.82640350      0.01584503     -0.01373226     -0.02469455       3      -1      -1      -1      32      0.00701620     -0.01510901     -0.03048319
 Li              2.60474475     10.40193165      2.62838771     -0.00302267      0.00676363     -0.02239620       3       0      -1       0      32      0.00065368      0.01053091     -0.04330465
 Li              7.81148246      0.02250147      2.59797531      0.01292782     -0.03339711      0.02798762       3      -1       0       0      32      0.00922844     -0.03598625      0.02852296
 Li              2.59923594      5.21286240      2.61135911      0.01798880     -0.00003152     -0.00395361       3       0      -1       0      32      0.01772628      0.00553171     -0.01575378
 Li              7.81821344      5.20891907      2.60702097     -0.01411584      0.01749932      0.00562087       3      -1       0       0      32     -0.01577330      0.00552476     -0.00088636
 Li              2.59900987     10.41369398      7.82811376      0.00719162      0.01077502     -0.00493369       3       0      -1      -1      32      0.00366351      0.01273250     -0.02224776
 Li              7.82157695     10.42240506      7.81773514     -0.00169071     -0.01368896     -0.01573514       3      -1      -1      -1      32      0.00050553     -0.00169213     -0.01084961
 Li              2.59962981      5.20923634      7.81319345      0.00997156     -0.00055993     -0.00639976       3       0       0      -1      32      0.00709697     -0.00033616     -0.01451169
 Li              7.82059993      5.20489477      7.81420008     -0.01030229      0.02576869     -0.00448375       3      -1       0      -1      32     -0.00523555      0.03051780     -0.00078353
 Li              2.61498527      2.61122215     10.41033912     -0.02351508     -0.01685784      0.01989662       3       0       0      -1      32     -0.02913267     -0.01608056      0.01990064
 Li              7.82930622      2.59211838     10.41716213      0.00508613      0.02394565      0.00599286       3      -1       0      -1      32     -0.00438996      0.02272045      0.00254724
 Li              2.61587495      7.79735386     10.39177504     -0.00335767      0.02852762      0.03678682       3       0      -1      -1      32     -0.00176976      0.02898187      0.04674987
 Li              7.81340066      7.81384873     10.41739998     -0.00238207     -0.00957380      0.00386505       3      -1      -1      -1      32     -0.00356918     -0.00458526      0.00507464
 Li              2.60186131      2.59877348      5.21536635      0.02483795      0.00389197     -0.01599204       3       0       0      -1      32      0.02396889      0.00255133     -0.01051971
 Li              7.83367969      2.60749624      5.21555854     -0.03098264      0.00249802     -0.00539916       3      -1       0      -1      32     -0.03344188     -0.00671618     -0.00955110
 Li              2.60859990      7.80369337      5.21338645     -0.00089687      0.01145255     -0.02330325       3       0      -1      -1      32      0.00024789      0.01211656     -0.00363618
 Li              7.81530645      7.81936932      5.21235533      0.00638360     -0.00329389     -0.00133761       3      -1      -1      -1      32      0.00787258     -0.01490386      0.00201767
 Cl              2.60167318     10.39405876      0.00954813      0.00425747      0.04936127     -0.02976317      17       0      -1       0      32      0.00393961      0.05672766     -0.03076948
 Cl              7.82119715     10.42024673      0.00012236     -0.01339646      0.02493345      0.00362378      17      -1      -1       0      32     -0.00209646      0.02003298      0.00643057
 Cl              2.59919112      5.22309645     10.40856768     -0.00180838     -0.00971979     -0.00707996      17       0      -1      -1      32      0.01024770     -0.00619741      0.00064826
 Cl              7.81334239      5.22315992     10.41919717     -0.01034218     -0.04126420      0.01274308      17      -1      -1      -1      32     -0.00385215     -0.03264533      0.01623522
 Cl              2.61201907      0.00097390      5.21419254     -0.00399703      0.02597270     -0.00956041      17       0       0      -1      32      0.00035979      0.02093966     -0.02135110
 Cl              7.83030940      0.00288886      5.23284689     -0.02705888      0.01940445     -0.03027176      17      -1       0      -1      32     -0.03081287      0.00429742     -0.04016646
 Cl              2.62490080      5.21159344      5.21021410     -0.06940301     -0.01210988      0.00782471      17       0      -1       0      32     -0.06579175     -0.00686647      0.00386149
 Cl              7.81831829      5.23414462      5.20758215      0.00691174     -0.06198972      0.00517818      17      -1      -1       0      32      0.00619479     -0.05907219      0.00830462
 Cl              2.60194209      2.61993261      2.59536088      0.01598102     -0.04065550      0.01068177      17       0       0       0      32      0.01366949     -0.05215206      0.01993932
 Cl              7.81219464      2.60488442      2.62509977      0.00508103     -0.00619374     -0.05821246      17      -1       0       0      32      0.00237923     -0.00761054     -0.06194980
 Cl              2.62163464      7.81575963      2.60968897     -0.03259319     -0.01795145     -0.00555955      17       0      -1       0      32     -0.04011673     -0.01799968      0.00264475
 Cl              7.81885611      7.82550204      2.61632385     -0.01310157     -0.01484830     -0.04067064      17      -1      -1       0      32     -0.01917175     -0.02769179     -0.03403544
 Cl              2.59924730      2.61641901      7.81316813     -0.00090352     -0.02607304      0.01035072      17       0       0      -1      32     -0.00181276     -0.03718157      0.01011499
 Cl              7.80840318      2.61114836      7.82182970      0.02438258     -0.00502336      0.00344938      17      -1       0      -1      32      0.02424732     -0.00693096     -0.00584720
 Cl              2.60058922      7.83337451      7.78171033     -0.01069921     -0.03761351      0.06863831      17       0      -1      -1      32     -0.01621412     -0.04258344      0.07756123
 Cl              7.82609842      7.82218230      7.81064667     -0.01517901      0.00164052      0.02995113      17      -1      -1      -1      32     -0.02273961     -0.00687557      0.02603091
 Cl              0.00774334     10.41138994      2.61793124     -0.01625954      0.03753251     -0.01896764      17       0      -1       0      32     -0.01488822      0.03488383     -0.02173213
 Cl              5.22108695     10.41091716      2.60648701     -0.00667969      0.03602818     -0.00788111      17      -1      -1       0      32     -0.01203950      0.03522264     -0.00211163
 Cl              0.00284404      5.19009891      2.59507353     -0.00440358      0.04691573      0.01723681      17       0       0       0      32      0.00036489      0.06179853      0.02116317
 Cl              5.19878070      5.20480190      2.59721842      0.03039442      0.00231343     -0.01725039      17       0       0       0      32      0.04015661      0.00725694     -0.00812029
 Cl              0.00369568      0.00485510      7.81216828      0.00246101      0.01196963      0.02179715      17       0       0      -1      32      0.00756684     -0.00433526      0.02120598
 Cl              5.21153194      0.00108511      7.81865026     -0.00204421      0.01031745      0.00485620      17      -1       0      -1      32      0.00536824      0.00065188     -0.00804310
 Cl             10.40742472      5.21085040      7.82202857      0.04062081     -0.00161877     -0.01356553      17      -1       0      -1      32      0.04962786     -0.00195297     -0.02336230
 Cl              5.19965152      5.21011570      7.80734840      0.01771098     -0.00441281      0.02946933      17       0       0      -1      32      0.03305180     -0.00131003      0.02600706
 Cl              0.00411134      2.61035196      0.00631595     -0.01877479     -0.02553319     -0.01988609      17       0       0       0      32     -0.01611339     -0.03049628     -0.01688765
 Cl              5.20069473      2.59087068     10.41936851      0.02229521      0.02139501      0.00049465      17       0       0      -1      32      0.02165797      0.03099560      0.00859350
 Cl             10.40281799      7.82548911      0.01841097      0.04480831     -0.02371146     -0.04590308      17      -1      -1       0      32      0.05226402     -0.02836892     -0.04802265
 Cl              5.19636764      7.80376330     10.39973652      0.03392715      0.02545983      0.02219216      17       0      -1      -1      32      0.03975516      0.02163820      0.03269311
 Cl             10.41490312      2.61385878      5.19507366      0.02584271     -0.00544391      0.04546173      17      -1       0       0      32      0.02811213     -0.00861540      0.04925890
 Cl              5.21375719      2.62000432      5.20728928     -0.00059903     -0.04547593      0.01007702      17      -1       0       0      32     -0.00156090     -0.04900754      0.00984603
 Cl             10.42019754      7.81729895      5.20425012      0.02749224     -0.01920374      0.00752547      17      -1      -1       0      32      0.02112532     -0.01823917      0.00455286
 Cl              5.21989022      7.81360557      5.20331104     -0.01411276      0.02004362      0.02383865      17      -1      -1       0      32     -0.00993312      0.01943513      0.02457059
 64
 REF_virial="-0.01568457      -0.00000000      -0.00000000      -0.00000000      -0.01659503      -0.00000000      -0.00000000      -0.00000000      -0.01659503" REF_energy=-244.43344900 config_type=test data_type=phonon energy=-244.43343158697965 cutoff=5.00000000 nneightol=1.20000000 pbc="T T T" Lattice="10.12128792       0.00000000       0.00000000       0.00000000      10.12128792       0.00000000       0.00000000       0.00000000      10.12128792" Properties=species:S:1:pos:R:3:REF_forces:R:3:force_atom_sigma:R:1:Z:I:1:map_shift:I:3:n_neighb:I:1:force:R:3
 Li              0.00000000      0.00000000      0.00000000      0.00303094      0.00000000      0.00000000      0.00100000       3       0       0       0      32      0.00284462      0.00000000     -0.00000000
 Li              5.06064396      0.00000000      0.00000000      0.00346452      0.00000000      0.00000000      0.00100000       3      -1       0       0      32      0.00335623      0.00000000     -0.00000000
 Li              0.00000000      5.06064396      0.00000000      0.00012905      0.00000000      0.00000000      0.00100000       3       0      -1       0      32     -0.00000000     -0.00000000      0.00000000
 Li              5.06064396      5.06064396      0.00000000      0.00013285      0.00000000      0.00000000      0.00100000       3      -1      -1       0      32     -0.00000000     -0.00000000      0.00000000
 Li              0.00000000      0.00000000      5.06064396      0.00012905      0.00000000      0.00000000      0.00100000       3       0       0      -1      32      0.00000000     -0.00000000     -0.00000000
 Li              5.06064396      0.00000000      5.06064396      0.00013285      0.00000000      0.00000000      0.00100000       3      -1       0      -1      32      0.00000000      0.00000000     -0.00000000
 Li              0.00000000      5.06064396      5.06064396     -0.00000140      0.00000000      0.00000000      0.00100000       3       0      -1      -1      32     -0.00000000     -0.00000000     -0.00000000
 Li              5.06064396      5.06064396      5.06064396      0.00000060      0.00000000      0.00000000      0.00100000       3      -1      -1      -1      32     -0.00000000     -0.00000000      0.00000000