 1
 REF_virial="-0.00064487      -0.00000000      -0.00000000      -0.00000000      -0.00064487      -0.00000000      -0.00000000      -0.00000000      -0.00064487" REF_energy=-0.27567309 config_type=IsolatedAtom data_type=iso_atoms energy=-.27567309000000001 cutoff=5.00000000 nneightol=1.20000000 pbc="T T T" Lattice="20.00000000       0.00000000       0.00000000       0.00000000      20.00000000       0.00000000       0.00000000       0.00000000      20.00000000" Properties=species:S:1:pos:R:3:REF_forces:R:3:Z:I:1:map_shift:I:3:n_neighb:I:1:force:R:3
 Cl             10.00000000     10.00000000     10.00000000     -0.00000000      0.00000000      0.00000000      17      -1      -1      -1       0      0.00000000      0.00000000      0.00000000
 1
 REF_virial="-0.02475762      -0.00000000      -0.00000000      -0.00000000      -0.02475762      -0.00000000      -0.00000000      -0.00000000      -0.02475762" REF_energy=-0.28663766 config_type=IsolatedAtom data_type=iso_atoms energy=-.28663766000000002 cutoff=5.00000000 nneightol=1.20000000 pbc="T T T" Lattice="20.00000000       0.00000000       0.00000000       0.00000000      20.00000000       0.00000000       0.00000000       0.00000000      20.00000000" Properties=species:S:1:pos:R:3:REF_forces:R:3:Z:I:1:map_shift:I:3:n_neighb:I:1:force:R:3
 Li             10.00000000     10.00000000     10.00000000      0.00000000      0.00000000     -0.00000000       3      -1      -1      -1       0      0.00000000      0.00000000      0.00000000
 64
 REF_virial="15.31948481       0.00331087       0.00456197       0.00331087      15.30964083      -0.00105156       0.00456197      -0.00105156      15.32334650" REF_energy=-243.90847635 config_type=test data_type=rand_struc energy=-243.90852692603735 cutoff=5.00000000 nneightol=1.20000000 pbc="T T T" Lattice="9.91427712       0.00000000       0.00000000       0.00000000       9.91427712       0.00000000       0.00000000       0.00000000       9.91427712" Properties=species:S:1:pos:R:3:REF_forces:R:3:Z:I:1:map_shift:I:3:n_neighb:I:1:force:R:3
 Li              0.01448238      9.89669465      9.90569641     -0.03271956      0.04525130      0.04435419       3       0      -1      -1      32     -0.04524716      0.03160223      0.04890276
 Li              4.96332081      0.00491639      9.90916542      0.00092354     -0.02342566      0.01728165       3      -1       0      -1      32     -0.00689175     -0.02439322      0.01596421
 Li              0.00533150      4.97999533      9.90402596      0.00639067     -0.05105727      0.01869917       3       0      -1      -1      32     -0.00296526     -0.04631183      0.01890715
 Li              4.96260123      4.95575235      0.00253716     -0.01711042      0.01524783     -0.00788185       3      -1       0       0      32     -0.01896636      0.01244930     -0.00623699
 Li              9.91386469      9.90039227      4.95658812     -0.00232238      0.04489079      0.00422954       3      -1      -1       0      32      0.00261258      0.04791680      0.01117328
 Li              4.94847903      9.90329944      4.95818640      0.02338293      0.03702372     -0.00085562       3       0      -1      -1      32      0.02833660      0.03001302      0.00360160
 Li              9.89995773      4.95370911      4.96679437      0.03235020     -0.01484770     -0.02379900       3      -1       0      -1      32      0.04466189     -0.00685284     -0.01408015
 Li              4.94324717      4.97011109      4.95294165      0.03694197     -0.04634983     -0.00807465       3       0      -1       0      32      0.05261306     -0.04233868     -0.00197013
 Li              0.00581740      2.49020587      2.47718703     -0.00132607     -0.05361209      0.00382113       3       0       0       0      32     -0.00113063     -0.05087920     -0.00217366
 Li              4.95126167      2.48743750      2.47529202      0.01186504     -0.02643365      0.02018680       3       0       0       0      32      0.01347332     -0.02902534      0.01893693
 Li              0.01687945      7.42226953      2.48033283     -0.05818730      0.02243418      0.00660288       3       0      -1       0      32     -0.05567472      0.01601736      0.02053753
 Li              4.94413599      7.42898318      2.48806051      0.02929209      0.01129510     -0.02585523       3       0      -1       0      32      0.02628212      0.00927999     -0.01481041
 Li              9.90963288      2.48351997      7.45412976      0.01237664     -0.01135657     -0.02391117       3      -1       0      -1      32      0.01604339     -0.00944151     -0.02962169
 Li              4.95253050      2.48557144      7.44068659      0.00956278     -0.00824937     -0.01836841       3       0       0      -1      32      0.01550596     -0.00769055     -0.01960208
 Li              9.90987845      7.43212056      7.42745728      0.01731370      0.02120060      0.03246429       3      -1      -1      -1      32      0.01740039      0.01933236      0.03655656
 Li              4.95982374      7.43130431      7.42293776     -0.01287148      0.02328475      0.05435438       3      -1      -1      -1      32     -0.00612834      0.02302420      0.05459905
 Li              2.49184886      9.90269675      2.45454778     -0.02995853      0.03744644      0.04309858       3       0      -1       0      32     -0.03103546      0.04652457      0.06339259
 Li              7.43344461      0.01210315      2.47670678      0.01906274     -0.02337466     -0.00251466       3      -1       0       0      32      0.01564058     -0.02869109      0.01274620
 Li              2.48231618      4.94392798      2.47672027     -0.00651955      0.00197821     -0.01957774       3       0       0       0      32     -0.01022575      0.00824608     -0.01495294
 Li              7.43370654      4.95421653      2.48097121      0.00153598      0.00659273     -0.00271946       3      -1       0       0      32      0.00519740     -0.00467321     -0.01018005
 Li              2.48758770      9.90587368      7.42658809     -0.03231618      0.01455644      0.02079545       3       0      -1      -1      32     -0.03919327      0.01135700      0.03872560
 Li              7.44468928      9.91151332      7.42041507     -0.02167614      0.01831150      0.02364787       3      -1      -1      -1      32     -0.02813648      0.01363060      0.03186440
 Li              2.49015738      4.96752307      7.43282060     -0.00827255     -0.01987804      0.00360855       3       0      -1      -1      32     -0.00776487     -0.01659203      0.00178192
 Li              7.42807335      4.96480924      7.44998906      0.02046043     -0.01872470     -0.02110617       3      -1      -1      -1      32      0.02044912     -0.01819589     -0.02550705
 Li              2.49106633      2.47413700      9.89914724     -0.05060270      0.01122890      0.02974461       3       0       0      -1      32     -0.05538474      0.01359077      0.02845132
 Li              7.43658902      2.48145741      9.90072579      0.00673999     -0.03332926      0.03787966       3      -1       0      -1      32      0.00094655     -0.03054073      0.04686773
 Li              2.46694866      7.43169682      0.01572930      0.03317147      0.00338132     -0.02797882       3       0      -1       0      32      0.04342908      0.00681733     -0.02649939
 Li              7.42279301      7.43218649      0.00892860      0.00958555      0.01260833      0.01393638       3      -1      -1       0      32      0.02151819      0.01395465      0.01276250
 Li              2.47454617      2.47558290      4.96428745     -0.00085619     -0.00240978     -0.01963360       3       0       0      -1      32      0.00277643     -0.00065406     -0.01165548
 Li              7.41953904      2.49659225      4.95557637      0.02377845     -0.05768778      0.00929156       3      -1       0       0      33      0.03072421     -0.05516456      0.02178768
 Li              2.48195263      7.42637157      4.94374745     -0.00031289      0.01890713      0.03988360       3       0      -1       0      32     -0.00807304      0.02130138      0.03531735
 Li              7.43501533      7.42230572      4.95663967      0.01355193      0.02668926     -0.00706981       3      -1      -1       0      32      0.01114260      0.01834907     -0.00762570
 Cl              2.47213630      9.90756436      0.00068240      0.04210059      0.00821310     -0.00625445      17       0      -1       0      32      0.04041618      0.00800888     -0.00832810
 Cl              7.44356064      9.90144190      9.91058098     -0.04409376      0.05596804      0.01007984      17      -1      -1      -1      32     -0.04256122      0.06831433      0.01299066
 Cl              2.48391734      4.96664139      0.00051534     -0.02324529     -0.02849284     -0.00889780      17       0      -1       0      32     -0.02714918     -0.03026507     -0.00169610
 Cl              7.43616677      4.94938401      0.00159461      0.01269596      0.02394256      0.00014953      17      -1       0       0      32      0.01156128      0.03010994      0.00280813
 Cl              2.47882646      0.00887536      4.96636964     -0.00923628     -0.05000812     -0.03826307      17       0       0      -1      32     -0.01426708     -0.04258327     -0.04476368
 Cl              7.44058983      9.90685846      4.95374292     -0.02266854      0.00596819      0.04072339      17      -1      -1       0      32     -0.02138315      0.01740844      0.04042557
 Cl              2.50943520      4.94880482      4.93730069     -0.11534773      0.03122041      0.06813994      17       0       0       0      33     -0.11242706      0.01970301      0.06907460
 Cl              7.42444790      4.94500001      4.95983267      0.02630352      0.07278632      0.00638799      17      -1       0      -1      32      0.00831052      0.07665228      0.00026754
 Cl              2.48049295      2.48660450      2.46717649     -0.00850675     -0.06161515      0.03546241      17       0       0       0      32     -0.01688737     -0.06926281      0.03057646
 Cl              7.44457031      2.47694483      2.49082025     -0.04709024      0.00670862     -0.06671925      17      -1       0       0      32     -0.04883242      0.00010726     -0.07536769
 Cl              2.47220501      7.42947810      2.47727795      0.02623690      0.00540173      0.03360556      17       0      -1       0      32      0.03002573      0.00492365      0.01836172
 Cl              7.42032465      7.43885661      2.48463325      0.07012134     -0.04803849      0.00792868      17      -1      -1       0      32      0.07775039     -0.04595157     -0.00177003
 Cl              2.48149221      2.48855960      7.44323238     -0.01792212     -0.00822204     -0.03282283      17       0       0      -1      32     -0.02536001     -0.00528084     -0.03158753
 Cl              7.43935550      2.48160791      7.44205030     -0.03640643     -0.00235342     -0.01388904      17      -1       0      -1      32     -0.03693373     -0.01007766     -0.01809926
 Cl              2.48000249      7.42555929      7.45477587      0.00472577      0.03222907     -0.07683243      17       0      -1      -1      32      0.00480878      0.02934642     -0.07978644
 Cl              7.43583187      7.43857366      7.44609592     -0.00466713     -0.02024467     -0.03577102      17      -1      -1      -1      32     -0.00662096     -0.01685848     -0.03950266
 Cl              0.00100075      9.90106853      2.48540091      0.01919511      0.02927259     -0.01593268      17       0      -1       0      32      0.01754520      0.04278528     -0.03223441
 Cl              4.96093305      9.90572159      2.48464941     -0.02739141      0.03034581     -0.02222054      17      -1      -1       0      32     -0.02753510      0.03890343     -0.03367451
 Cl              0.00206187      4.94169013      2.48078819     -0.01394215      0.07953862      0.01052792      17       0       0       0      32     -0.01689839      0.08317731      0.01256637
 Cl              4.95260873      4.95586388      2.46591579      0.03581617      0.00473658      0.04303777      17       0       0       0      32      0.03790891      0.00371191      0.04450944
 Cl              9.90991553      0.01231333      7.45997720      0.03606278     -0.05422860     -0.09584495      17      -1       0      -1      32      0.04494554     -0.04768567     -0.10809816
 Cl              4.93771709      0.01900478      7.44077840      0.08235885     -0.07321631     -0.01102136      17       0       0      -1      32      0.08898189     -0.07056543     -0.01675729
 Cl              0.01150909      4.95570129      7.42737945     -0.03577149      0.02273152      0.01940499      17       0       0      -1      32     -0.03915053      0.01117479      0.02021338
 Cl              4.96294486      4.95520676      7.43110900     -0.00515941      0.01496222      0.02208650      17      -1       0      -1      32     -0.01560277      0.00406597      0.02993856
 Cl              9.91325109      2.47262795      0.00454837      0.01120014      0.03993787     -0.00112024      17      -1       0       0      32      0.02299691      0.03142294      0.00015330
 Cl              4.93839820      2.47633579      0.00963271      0.09162205      0.00456508     -0.02714976      17       0       0       0      32      0.10184322     -0.00317369     -0.02391299
 Cl              0.00071224      7.44376924      0.01077454     -0.02654379     -0.06647156     -0.03019290      17       0      -1       0      32     -0.02664979     -0.06402149     -0.03348727
 Cl              4.95810857      7.43640372      0.01694191     -0.01355597     -0.00108400     -0.06906418      17      -1      -1       0      32     -0.01042784      0.00537853     -0.07339571
 Cl              9.90391065      2.47378594      4.95820553      0.04358117      0.01720900      0.02334274      17      -1       0      -1      32      0.04387345      0.00484199      0.01593702
 Cl              4.96004037      2.46824981      4.95095314     -0.01678107      0.03094919      0.02091382      17      -1       0       0      32     -0.01492770      0.02292963      0.00945597
 Cl              0.01347301      7.44366732      4.96766138     -0.03377607     -0.07096803     -0.01780880      17       0      -1      -1      32     -0.03997559     -0.06597246     -0.02790242
 Cl              4.96274042      7.43927133      4.95972014     -0.03314888     -0.01333546      0.01348008      17      -1      -1      -1      32     -0.03931375     -0.00322952      0.00512488
 64
 REF_virial="-18.10383404      -0.00199323       0.00069561      -0.00199323     -18.09331827      -0.00221593       0.00069561      -0.00221593     -18.11536927" REF_energy=-243.63816253 config_type=test data_type=rand_struc energy=-243.63812967860827 cutoff=5.00000000 nneightol=1.20000000 pbc="T T T" Lattice="10.42270159       0.00000000       0.00000000       0.00000000      10.42270159       0.00000000       0.00000000       0.00000000      10.42270159" Properties=species:S:1:pos:R:3:REF_forces:R:3:Z:I:1:map_shift:I:3:n_neighb:I:1:force:R:3
 Li             10.40733801     10.41428682      0.01060062      0.03115830      0.00453354      0.00475949       3      -1      -1       0      32      0.03351532      0.00838363      0.01315589
 Li              5.21144439      0.01673625      0.00586454     -0.02034712     -0.03571102     -0.00507890       3      -1       0       0      32     -0.01693701     -0.02960458     -0.00476167
 Li             10.42225466      5.21425373      0.00270042     -0.01132787     -0.00534047     -0.00120156       3      -1      -1       0      32     -0.01637657     -0.00379306     -0.00496322
 Li              5.20148143      5.20347332     10.41257041      0.01124426      0.02276834      0.00909787       3       0       0      -1      32      0.01174251      0.01796477      0.01421113
 Li              0.00395771     10.41840431      5.20124901     -0.00710468     -0.02269139      0.00290056       3       0      -1       0      32     -0.00951856     -0.00244107      0.00613217
 Li              5.21863512     10.41713493      5.22301786      0.00192515     -0.00071459     -0.00676875       3      -1      -1      -1      32     -0.00998943      0.01828661     -0.00766157
 Li             10.41670249      5.18330424      5.22056947     -0.00848403      0.04617029     -0.00999436       3      -1       0      -1      32     -0.00596883      0.05535365     -0.00710015
 Li              5.18715616      5.18783760      5.20962563      0.02997668      0.02308231     -0.00663302       3       0       0       0      32      0.03147444      0.02999436     -0.00063796
 Li              0.01349563      2.61170608      2.60385382      0.00248760     -0.01217402     -0.00945654       3       0       0       0      32      0.00036608     -0.00323520     -0.00924070
 Li              5.21951604      2.60405581      2.58727328     -0.01756206      0.01260367      0.03541386       3      -1       0       0      32     -0.02320957      0.00947022      0.03289933
 Li             10.41946107      7.80293095      2.60149308      0.00098518      0.01635418      0.02190841       3      -1      -1       0      32     -0.00058889      0.02334010      0.01335272
 Li              5.21504356      7.82577313      2.60639936     -0.00126970     -0.02120356      0.00803603       3      -1      -1       0      32     -0.00012777     -0.01553768     -0.00360144
 Li              0.01577955      2.60286815      7.81267597     -0.00971888      0.00367562      0.01415070       3       0       0      -1      32     -0.01669520     -0.00096778      0.02087281
 Li              5.23182776      2.60701044      7.82535987     -0.01908898      0.00439756     -0.03052868       3      -1       0      -1      32     -0.02948208      0.00236723     -0.02370303
 Li              0.01687613      7.83201331      7.82771394     -0.03365116     -0.01018313     -0.02894459       3       0      -1      -1      32     -0.03565216     -0.01449712     -0.02869939
 Li              5.21299727      7.82770383      7.82640350      0.01584503     -0.01373226     -0.02469455       3      -1      -1      -1      32      0.00699846     -0.01527141     -0.03049635
 Li              2.60474475     10.40193165      2.62838771     -0.00302267      0.00676363     -0.02239620       3       0      -1       0      32      0.00064888      0.01060791     -0.04347390
 Li              7.81148246      0.02250147      2.59797531      0.01292782     -0.03339711      0.02798762       3      -1       0       0      32      0.00947390     -0.03594313      0.02863930
 Li              2.59923594      5.21286240      2.61135911      0.01798880     -0.00003152     -0.00395361       3       0      -1       0      32      0.01770964      0.00545258     -0.01574131
 Li              7.81821344      5.20891907      2.60702097     -0.01411584      0.01749932      0.00562087       3      -1       0       0      32     -0.01571021      0.00550288     -0.00075865
 Li              2.59900987     10.41369398      7.82811376      0.00719162      0.01077502     -0.00493369       3       0      -1      -1      32      0.00380685      0.01274004     -0.02203590
 Li              7.82157695     10.42240506      7.81773514     -0.00169071     -0.01368896     -0.01573514       3      -1      -1      -1      32      0.00058323     -0.00174547     -0.01077194
 Li              2.59962981      5.20923634      7.81319345      0.00997156     -0.00055993     -0.00639976       3       0       0      -1      32      0.00725404     -0.00040120     -0.01450651
 Li              7.82059993      5.20489477      7.81420008     -0.01030229      0.02576869     -0.00448375       3      -1       0      -1      32     -0.00525932      0.03057261     -0.00085274
 Li              2.61498527      2.61122215     10.41033912     -0.02351508     -0.01685784      0.01989662       3       0       0      -1      32     -0.02914482     -0.01613429      0.01997604
 Li              7.82930622      2.59211838     10.41716213      0.00508613      0.02394565      0.00599286       3      -1       0      -1      32     -0.00425631      0.02285189      0.00257205
 Li              2.61587495      7.79735386     10.39177504     -0.00335767      0.02852762      0.03678682       3       0      -1      -1      32     -0.00178508      0.02901027      0.04686977
 Li              7.81340066      7.81384873     10.41739998     -0.00238207     -0.00957380      0.00386505       3      -1      -1      -1      32     -0.00365892     -0.00453360      0.00509815
 Li              2.60186131      2.59877348      5.21536635      0.02483795      0.00389197     -0.01599204       3       0       0      -1      32      0.02405535      0.00248713     -0.01049915
 Li              7.83367969      2.60749624      5.21555854     -0.03098264      0.00249802     -0.00539916       3      -1       0      -1      32     -0.03330915     -0.00667713     -0.00952777
 Li              2.60859990      7.80369337      5.21338645     -0.00089687      0.01145255     -0.02330325       3       0      -1      -1      32      0.00026231      0.01213537     -0.00358908
 Li              7.81530645      7.81936932      5.21235533      0.00638360     -0.00329389     -0.00133761       3      -1      -1      -1      32      0.00785793     -0.01483332      0.00208699
 Cl              2.60167318     10.39405876      0.00954813      0.00425747      0.04936127     -0.02976317      17       0      -1       0      32      0.00383414      0.05678617     -0.03077343
 Cl              7.82119715     10.42024673      0.00012236     -0.01339646      0.02493345      0.00362378      17      -1      -1       0      32     -0.00230161      0.02000660      0.00642960
 Cl              2.59919112      5.22309645     10.40856768     -0.00180838     -0.00971979     -0.00707996      17       0      -1      -1      32      0.01004898     -0.00607365      0.00055806
 Cl              7.81334239      5.22315992     10.41919717     -0.01034218     -0.04126420      0.01274308      17      -1      -1      -1      32     -0.00415791     -0.03276590      0.01637713
 Cl              2.61201907      0.00097390      5.21419254     -0.00399703      0.02597270     -0.00956041      17       0       0      -1      32      0.00031174      0.02101946     -0.02133318
 Cl              7.83030940      0.00288886      5.23284689     -0.02705888      0.01940445     -0.03027176      17      -1       0      -1      32     -0.03094107      0.00432195     -0.04004569
 Cl              2.62490080      5.21159344      5.21021410     -0.06940301     -0.01210988      0.00782471      17       0      -1       0      32     -0.06607978     -0.00687987      0.00379610
 Cl              7.81831829      5.23414462      5.20758215      0.00691174     -0.06198972      0.00517818      17      -1      -1       0      32      0.00602080     -0.05904740      0.00820753
 Cl              2.60194209      2.61993261      2.59536088      0.01598102     -0.04065550      0.01068177      17       0       0       0      32      0.01376484     -0.05225538      0.01988942
 Cl              7.81219464      2.60488442      2.62509977      0.00508103     -0.00619374     -0.05821246      17      -1       0       0      32      0.00239369     -0.00769619     -0.06204305
 Cl              2.62163464      7.81575963      2.60968897     -0.03259319     -0.01795145     -0.00555955      17       0      -1       0      32     -0.04012847     -0.01802533      0.00253166
 Cl              7.81885611      7.82550204      2.61632385     -0.01310157     -0.01484830     -0.04067064      17      -1      -1       0      32     -0.01911714     -0.02749901     -0.03419011
 Cl              2.59924730      2.61641901      7.81316813     -0.00090352     -0.02607304      0.01035072      17       0       0      -1      32     -0.00168666     -0.03714154      0.01010315
 Cl              7.80840318      2.61114836      7.82182970      0.02438258     -0.00502336      0.00344938      17      -1       0      -1      32      0.02421400     -0.00678611     -0.00585488
 Cl              2.60058922      7.83337451      7.78171033     -0.01069921     -0.03761351      0.06863831      17       0      -1      -1      32     -0.01636392     -0.04268593      0.07744693
 Cl              7.82609842      7.82218230      7.81064667     -0.01517901      0.00164052      0.02995113      17      -1      -1      -1      32     -0.02263848     -0.00672600      0.02607150
 Cl              0.00774334     10.41138994      2.61793124     -0.01625954      0.03753251     -0.01896764      17       0      -1       0      32     -0.01506148      0.03510647     -0.02148890
 Cl              5.22108695     10.41091716      2.60648701     -0.00667969      0.03602818     -0.00788111      17      -1      -1       0      32     -0.01194192      0.03524748     -0.00202056
 Cl              0.00284404      5.19009891      2.59507353     -0.00440358      0.04691573      0.01723681      17       0       0       0      32      0.00034557      0.06180410      0.02126844
 Cl              5.19878070      5.20480190      2.59721842      0.03039442      0.00231343     -0.01725039      17       0       0       0      32      0.04011299      0.00742812     -0.00825205
 Cl              0.00369568      0.00485510      7.81216828      0.00246101      0.01196963      0.02179715      17       0       0      -1      32      0.00752170     -0.00410026      0.02125823
 Cl              5.21153194      0.00108511      7.81865026     -0.00204421      0.01031745      0.00485620      17      -1       0      -1      32      0.00527597      0.00068765     -0.00796826
 Cl             10.40742472      5.21085040      7.82202857      0.04062081     -0.00161877     -0.01356553      17      -1       0      -1      32      0.04966771     -0.00179788     -0.02336308
 Cl              5.19965152      5.21011570      7.80734840      0.01771098     -0.00441281      0.02946933      17       0       0      -1      32      0.03295684     -0.00115678      0.02602456
 Cl              0.00411134      2.61035196      0.00631595     -0.01877479     -0.02553319     -0.01988609      17       0       0       0      32     -0.01625295     -0.03056298     -0.01692241
 Cl              5.20069473      2.59087068     10.41936851      0.02229521      0.02139501      0.00049465      17       0       0      -1      32      0.02177405      0.03094868      0.00856181
 Cl             10.40281799      7.82548911      0.01841097      0.04480831     -0.02371146     -0.04590308      17      -1      -1       0      32      0.05243752     -0.02831382     -0.04810279
 Cl              5.19636764      7.80376330     10.39973652      0.03392715      0.02545983      0.02219216      17       0      -1      -1      32      0.03979558      0.02171270      0.03260626
 Cl             10.41490312      2.61385878      5.19507366      0.02584271     -0.00544391      0.04546173      17      -1       0       0      32      0.02809286     -0.00845873      0.04925621
 Cl              5.21375719      2.62000432      5.20728928     -0.00059903     -0.04547593      0.01007702      17      -1       0       0      32     -0.00142728     -0.04898504      0.00971253
 Cl             10.42019754      7.81729895      5.20425012      0.02749224     -0.01920374      0.00752547      17      -1      -1       0      32      0.02134428     -0.01845602      0.00450015
 Cl              5.21989022      7.81360557      5.20331104     -0.01411276      0.02004362      0.02383865      17      -1      -1       0      32     -0.00989363      0.01943922      0.02451521
 64
 REF_virial="-0.01568457      -0.00000000      -0.00000000      -0.00000000      -0.01659503      -0.00000000      -0.00000000      -0.00000000      -0.01659503" REF_energy=-244.43344900 config_type=test data_type=phonon energy=-244.43343128331091 cutoff=5.00000000 nneightol=1.20000000 pbc="T T T" Lattice="10.12128792       0.00000000       0.00000000       0.00000000      10.12128792       0.00000000       0.00000000       0.00000000      10.12128792" Properties=species:S:1:pos:R:3:REF_forces:R:3:force_atom_sigma:R:1:Z:I:1:map_shift:I:3:n_neighb:I:1:force:R:3
 Li              0.00000000      0.00000000      0.00000000      0.00303094      0.00000000      0.00000000      0.00100000       3       0       0       0      32      0.00283802     -0.00000000     -0.00000000
 Li              5.06064396      0.00000000      0.00000000      0.00346452      0.00000000      0.00000000      0.00100000       3      -1       0       0      32      0.00335507     -0.00000000     -0.00000000
 Li              0.00000000      5.06064396      0.00000000      0.00012905      0.00000000      0.00000000      0.00100000       3       0      -1       0      32      0.00000000      0.00000000     -0.00000000
 Li              5.06064396      5.06064396      0.00000000      0.00013285      0.00000000      0.00000000      0.00100000       3      -1      -1       0      32     -0.00000000      0.00000000      0.00000000
 Li              0.00000000      0.00000000      5.06064396      0.00012905      0.00000000      0.00000000      0.00100000       3       0       0      -1      32     -0.00000000      0.00000000     -0.00000000
 Li              5.06064396      0.00000000      5.06064396      0.00013285      0.00000000      0.00000000      0.00100000       3      -1       0      -1      32      0.00000000     -0.00000000     -0.00000000
 Li              0.00000000      5.06064396      5.06064396     -0.00000140      0.00000000      0.00000000      0.00100000       3       0      -1      -1      32     -0.00000000      0.00000000     -0.00000000
 Li              5.06064396      5.06064396      5.06064396      0.00000060      0.00000000      0.00000000      0.00100000       3      -1      -1      -1      32      0.00000000     -0.00000000     -0.00000000