phonopy:
  version: "2.21.0"
  frequency_unit_conversion_factor: 15.633302
  symmetry_tolerance: 1.00000e-04

space_group:
  type: "Fm-3m"
  number: 225
  Hall_symbol: "-F 4 2 3"

primitive_matrix:
- [ -0.000000000000000,  0.500000000000000,  0.500000000000000 ]
- [  0.500000000000000,  0.000000000000000,  0.500000000000000 ]
- [  0.500000000000000,  0.500000000000000,  0.000000000000000 ]

supercell_matrix:
- [   2,   0,   0 ]
- [   0,   2,   0 ]
- [   0,   0,   2 ]

primitive_cell:
  lattice:
  - [     0.000000000000000,     2.542122339049762,     2.542122339049762 ] # a
  - [     2.542122339049762,     0.000000000000000,     2.542122339049762 ] # b
  - [     2.542122339049762,     2.542122339049762,     0.000000000000000 ] # c
  points:
  - symbol: Li # 1
    coordinates: [  0.000000000000000,  0.000000000000000,  0.000000000000000 ]
    mass: 6.941000
  - symbol: Cl # 2
    coordinates: [  0.500000000000000,  0.500000000000000,  0.500000000000000 ]
    mass: 35.453000
  reciprocal_lattice: # without 2pi
  - [    -0.196686049416056,     0.196686049416055,     0.196686049416055 ] # a*
  - [     0.196686049416055,    -0.196686049416055,     0.196686049416055 ] # b*
  - [     0.196686049416055,     0.196686049416055,    -0.196686049416055 ] # c*

unit_cell:
  lattice:
  - [     5.084244678099525,     0.000000000000000,     0.000000000000000 ] # a
  - [     0.000000000000001,     5.084244678099525,     0.000000000000000 ] # b
  - [     0.000000000000000,     0.000000000000000,     5.084244678099525 ] # c
  points:
  - symbol: Li # 1
    coordinates: [  0.000000000000000,  0.000000000000000,  0.000000000000000 ]
    mass: 6.941000
    reduced_to: 1
  - symbol: Li # 2
    coordinates: [  0.000000000000000,  0.500000000000000,  0.500000000000000 ]
    mass: 6.941000
    reduced_to: 1
  - symbol: Li # 3
    coordinates: [  0.500000000000000,  0.000000000000000,  0.500000000000000 ]
    mass: 6.941000
    reduced_to: 1
  - symbol: Li # 4
    coordinates: [  0.500000000000000,  0.500000000000000,  0.000000000000000 ]
    mass: 6.941000
    reduced_to: 1
  - symbol: Cl # 5
    coordinates: [  0.500000000000000,  0.000000000000000,  0.000000000000000 ]
    mass: 35.453000
    reduced_to: 5
  - symbol: Cl # 6
    coordinates: [  0.500000000000000,  0.500000000000000,  0.500000000000000 ]
    mass: 35.453000
    reduced_to: 5
  - symbol: Cl # 7
    coordinates: [  0.000000000000000,  0.000000000000000,  0.500000000000000 ]
    mass: 35.453000
    reduced_to: 5
  - symbol: Cl # 8
    coordinates: [  0.000000000000000,  0.500000000000000,  0.000000000000000 ]
    mass: 35.453000
    reduced_to: 5

supercell:
  lattice:
  - [    10.168489356199050,     0.000000000000000,     0.000000000000001 ] # a
  - [     0.000000000000002,    10.168489356199050,     0.000000000000001 ] # b
  - [     0.000000000000000,     0.000000000000000,    10.168489356199050 ] # c
  points:
  - symbol: Li # 1
    coordinates: [  0.000000000000000,  0.000000000000000,  0.000000000000000 ]
    mass: 6.941000
    reduced_to: 1
  - symbol: Li # 2
    coordinates: [  0.500000000000000,  0.000000000000000,  0.000000000000000 ]
    mass: 6.941000
    reduced_to: 1
  - symbol: Li # 3
    coordinates: [  0.000000000000000,  0.500000000000000,  0.000000000000000 ]
    mass: 6.941000
    reduced_to: 1
  - symbol: Li # 4
    coordinates: [  0.500000000000000,  0.500000000000000,  0.000000000000000 ]
    mass: 6.941000
    reduced_to: 1
  - symbol: Li # 5
    coordinates: [  0.000000000000000,  0.000000000000000,  0.500000000000000 ]
    mass: 6.941000
    reduced_to: 1
  - symbol: Li # 6
    coordinates: [  0.500000000000000,  0.000000000000000,  0.500000000000000 ]
    mass: 6.941000
    reduced_to: 1
  - symbol: Li # 7
    coordinates: [  0.000000000000000,  0.500000000000000,  0.500000000000000 ]
    mass: 6.941000
    reduced_to: 1
  - symbol: Li # 8
    coordinates: [  0.500000000000000,  0.500000000000000,  0.500000000000000 ]
    mass: 6.941000
    reduced_to: 1
  - symbol: Li # 9
    coordinates: [  0.000000000000000,  0.250000000000000,  0.250000000000000 ]
    mass: 6.941000
    reduced_to: 1
  - symbol: Li # 10
    coordinates: [  0.500000000000000,  0.250000000000000,  0.250000000000000 ]
    mass: 6.941000
    reduced_to: 1
  - symbol: Li # 11
    coordinates: [  0.000000000000000,  0.750000000000000,  0.250000000000000 ]
    mass: 6.941000
    reduced_to: 1
  - symbol: Li # 12
    coordinates: [  0.500000000000000,  0.750000000000000,  0.250000000000000 ]
    mass: 6.941000
    reduced_to: 1
  - symbol: Li # 13
    coordinates: [  0.000000000000000,  0.250000000000000,  0.750000000000000 ]
    mass: 6.941000
    reduced_to: 1
  - symbol: Li # 14
    coordinates: [  0.500000000000000,  0.250000000000000,  0.750000000000000 ]
    mass: 6.941000
    reduced_to: 1
  - symbol: Li # 15
    coordinates: [  0.000000000000000,  0.750000000000000,  0.750000000000000 ]
    mass: 6.941000
    reduced_to: 1
  - symbol: Li # 16
    coordinates: [  0.500000000000000,  0.750000000000000,  0.750000000000000 ]
    mass: 6.941000
    reduced_to: 1
  - symbol: Li # 17
    coordinates: [  0.250000000000000,  0.000000000000000,  0.250000000000000 ]
    mass: 6.941000
    reduced_to: 1
  - symbol: Li # 18
    coordinates: [  0.750000000000000,  0.000000000000000,  0.250000000000000 ]
    mass: 6.941000
    reduced_to: 1
  - symbol: Li # 19
    coordinates: [  0.250000000000000,  0.500000000000000,  0.250000000000000 ]
    mass: 6.941000
    reduced_to: 1
  - symbol: Li # 20
    coordinates: [  0.750000000000000,  0.500000000000000,  0.250000000000000 ]
    mass: 6.941000
    reduced_to: 1
  - symbol: Li # 21
    coordinates: [  0.250000000000000,  0.000000000000000,  0.750000000000000 ]
    mass: 6.941000
    reduced_to: 1
  - symbol: Li # 22
    coordinates: [  0.750000000000000,  0.000000000000000,  0.750000000000000 ]
    mass: 6.941000
    reduced_to: 1
  - symbol: Li # 23
    coordinates: [  0.250000000000000,  0.500000000000000,  0.750000000000000 ]
    mass: 6.941000
    reduced_to: 1
  - symbol: Li # 24
    coordinates: [  0.750000000000000,  0.500000000000000,  0.750000000000000 ]
    mass: 6.941000
    reduced_to: 1
  - symbol: Li # 25
    coordinates: [  0.250000000000000,  0.250000000000000,  0.000000000000000 ]
    mass: 6.941000
    reduced_to: 1
  - symbol: Li # 26
    coordinates: [  0.750000000000000,  0.250000000000000,  0.000000000000000 ]
    mass: 6.941000
    reduced_to: 1
  - symbol: Li # 27
    coordinates: [  0.250000000000000,  0.750000000000000,  0.000000000000000 ]
    mass: 6.941000
    reduced_to: 1
  - symbol: Li # 28
    coordinates: [  0.750000000000000,  0.750000000000000,  0.000000000000000 ]
    mass: 6.941000
    reduced_to: 1
  - symbol: Li # 29
    coordinates: [  0.250000000000000,  0.250000000000000,  0.500000000000000 ]
    mass: 6.941000
    reduced_to: 1
  - symbol: Li # 30
    coordinates: [  0.750000000000000,  0.250000000000000,  0.500000000000000 ]
    mass: 6.941000
    reduced_to: 1
  - symbol: Li # 31
    coordinates: [  0.250000000000000,  0.750000000000000,  0.500000000000000 ]
    mass: 6.941000
    reduced_to: 1
  - symbol: Li # 32
    coordinates: [  0.750000000000000,  0.750000000000000,  0.500000000000000 ]
    mass: 6.941000
    reduced_to: 1
  - symbol: Cl # 33
    coordinates: [  0.250000000000000,  0.000000000000000,  0.000000000000000 ]
    mass: 35.453000
    reduced_to: 33
  - symbol: Cl # 34
    coordinates: [  0.750000000000000,  0.000000000000000,  0.000000000000000 ]
    mass: 35.453000
    reduced_to: 33
  - symbol: Cl # 35
    coordinates: [  0.250000000000000,  0.500000000000000,  0.000000000000000 ]
    mass: 35.453000
    reduced_to: 33
  - symbol: Cl # 36
    coordinates: [  0.750000000000000,  0.500000000000000,  0.000000000000000 ]
    mass: 35.453000
    reduced_to: 33
  - symbol: Cl # 37
    coordinates: [  0.250000000000000,  0.000000000000000,  0.500000000000000 ]
    mass: 35.453000
    reduced_to: 33
  - symbol: Cl # 38
    coordinates: [  0.750000000000000,  0.000000000000000,  0.500000000000000 ]
    mass: 35.453000
    reduced_to: 33
  - symbol: Cl # 39
    coordinates: [  0.250000000000000,  0.500000000000000,  0.500000000000000 ]
    mass: 35.453000
    reduced_to: 33
  - symbol: Cl # 40
    coordinates: [  0.750000000000000,  0.500000000000000,  0.500000000000000 ]
    mass: 35.453000
    reduced_to: 33
  - symbol: Cl # 41
    coordinates: [  0.250000000000000,  0.250000000000000,  0.250000000000000 ]
    mass: 35.453000
    reduced_to: 33
  - symbol: Cl # 42
    coordinates: [  0.750000000000000,  0.250000000000000,  0.250000000000000 ]
    mass: 35.453000
    reduced_to: 33
  - symbol: Cl # 43
    coordinates: [  0.250000000000000,  0.750000000000000,  0.250000000000000 ]
    mass: 35.453000
    reduced_to: 33
  - symbol: Cl # 44
    coordinates: [  0.750000000000000,  0.750000000000000,  0.250000000000000 ]
    mass: 35.453000
    reduced_to: 33
  - symbol: Cl # 45
    coordinates: [  0.250000000000000,  0.250000000000000,  0.750000000000000 ]
    mass: 35.453000
    reduced_to: 33
  - symbol: Cl # 46
    coordinates: [  0.750000000000000,  0.250000000000000,  0.750000000000000 ]
    mass: 35.453000
    reduced_to: 33
  - symbol: Cl # 47
    coordinates: [  0.250000000000000,  0.750000000000000,  0.750000000000000 ]
    mass: 35.453000
    reduced_to: 33
  - symbol: Cl # 48
    coordinates: [  0.750000000000000,  0.750000000000000,  0.750000000000000 ]
    mass: 35.453000
    reduced_to: 33
  - symbol: Cl # 49
    coordinates: [  0.000000000000000,  0.000000000000000,  0.250000000000000 ]
    mass: 35.453000
    reduced_to: 33
  - symbol: Cl # 50
    coordinates: [  0.500000000000000,  0.000000000000000,  0.250000000000000 ]
    mass: 35.453000
    reduced_to: 33
  - symbol: Cl # 51
    coordinates: [  0.000000000000000,  0.500000000000000,  0.250000000000000 ]
    mass: 35.453000
    reduced_to: 33
  - symbol: Cl # 52
    coordinates: [  0.500000000000000,  0.500000000000000,  0.250000000000000 ]
    mass: 35.453000
    reduced_to: 33
  - symbol: Cl # 53
    coordinates: [  0.000000000000000,  0.000000000000000,  0.750000000000000 ]
    mass: 35.453000
    reduced_to: 33
  - symbol: Cl # 54
    coordinates: [  0.500000000000000,  0.000000000000000,  0.750000000000000 ]
    mass: 35.453000
    reduced_to: 33
  - symbol: Cl # 55
    coordinates: [  0.000000000000000,  0.500000000000000,  0.750000000000000 ]
    mass: 35.453000
    reduced_to: 33
  - symbol: Cl # 56
    coordinates: [  0.500000000000000,  0.500000000000000,  0.750000000000000 ]
    mass: 35.453000
    reduced_to: 33
  - symbol: Cl # 57
    coordinates: [  0.000000000000000,  0.250000000000000,  0.000000000000000 ]
    mass: 35.453000
    reduced_to: 33
  - symbol: Cl # 58
    coordinates: [  0.500000000000000,  0.250000000000000,  0.000000000000000 ]
    mass: 35.453000
    reduced_to: 33
  - symbol: Cl # 59
    coordinates: [  0.000000000000000,  0.750000000000000,  0.000000000000000 ]
    mass: 35.453000
    reduced_to: 33
  - symbol: Cl # 60
    coordinates: [  0.500000000000000,  0.750000000000000,  0.000000000000000 ]
    mass: 35.453000
    reduced_to: 33
  - symbol: Cl # 61
    coordinates: [  0.000000000000000,  0.250000000000000,  0.500000000000000 ]
    mass: 35.453000
    reduced_to: 33
  - symbol: Cl # 62
    coordinates: [  0.500000000000000,  0.250000000000000,  0.500000000000000 ]
    mass: 35.453000
    reduced_to: 33
  - symbol: Cl # 63
    coordinates: [  0.000000000000000,  0.750000000000000,  0.500000000000000 ]
    mass: 35.453000
    reduced_to: 33
  - symbol: Cl # 64
    coordinates: [  0.500000000000000,  0.750000000000000,  0.500000000000000 ]
    mass: 35.453000
    reduced_to: 33

displacements:
- atom:    1
  displacement:
    [   0.0100000000000000,  0.0000000000000000,  0.0000000000000000 ]
  forces:
  - [  -0.0113975330420513, -0.0000000000000977, -0.0000000000002021 ]
  - [   0.0000000001183057,  0.0000000000003255, -0.0000000000005186 ]
  - [  -0.0000000000416714,  0.0000000000003257, -0.0000000000006391 ]
  - [   0.0000000000411040, -0.0000000000005143, -0.0000000000003135 ]
  - [  -0.0000000000422879, -0.0000000000003133, -0.0000000000004736 ]
  - [   0.0000000000419148, -0.0000000000001204,  0.0000000000005497 ]
  - [  -0.0000000000206072, -0.0000000000002089,  0.0000000000006621 ]
  - [   0.0000000000199447, -0.0000000000005546, -0.0000000000005481 ]
  - [  -0.0012424818861132, -0.0000030187964661, -0.0000030187963420 ]
  - [   0.0000000000167668,  0.0000000000003840,  0.0000000000001144 ]
  - [  -0.0012424818861798,  0.0000030187971533, -0.0000030187960326 ]
  - [   0.0000000000169119,  0.0000000000002549,  0.0000000000002389 ]
  - [  -0.0012424818860929, -0.0000030187962371,  0.0000030187963978 ]
  - [   0.0000000000164213, -0.0000000000000183, -0.0000000000001178 ]
  - [  -0.0012424818862116,  0.0000030187968315,  0.0000030187961814 ]
  - [   0.0000000000163938,  0.0000000000007416, -0.0000000000001830 ]
  - [   0.0002121308256323, -0.0000000000003298,  0.0014603692941738 ]
  - [   0.0003755689252021, -0.0000000000001083, -0.0016117226406628 ]
  - [   0.0000000000006305, -0.0000000000003297,  0.0000000000108838 ]
  - [  -0.0000000000002211, -0.0000000000003175, -0.0000000000100309 ]
  - [   0.0002121308258902, -0.0000000000002812, -0.0014603692941138 ]
  - [   0.0003755689248320, -0.0000000000001567,  0.0016117226407794 ]
  - [   0.0000000000003049, -0.0000000000007114, -0.0000000000101277 ]
  - [   0.0000000000002656, -0.0000000000004339,  0.0000000000104807 ]
  - [   0.0002121308267135,  0.0014603692945240, -0.0000000000001608 ]
  - [   0.0003755689258671, -0.0016117226410485,  0.0000000000001202 ]
  - [   0.0002121308258812, -0.0014603692939448, -0.0000000000001529 ]
  - [   0.0003755689256483,  0.0016117226414578,  0.0000000000002245 ]
  - [   0.0000000000002277,  0.0000000000105423,  0.0000000000004294 ]
  - [  -0.0000000000000660, -0.0000000000105653, -0.0000000000004398 ]
  - [  -0.0000000000006414, -0.0000000000111812, -0.0000000000000296 ]
  - [   0.0000000000005028,  0.0000000000114011, -0.0000000000004941 ]
  - [   0.0021317902247811, -0.0000000000000081,  0.0000000000000031 ]
  - [   0.0019016364845949, -0.0000000000000160,  0.0000000000000663 ]
  - [   0.0000000000002655,  0.0000000000000587,  0.0000000000000688 ]
  - [   0.0000000000000245, -0.0000000000000181,  0.0000000000001071 ]
  - [   0.0000000000001282,  0.0000000000000843, -0.0000000000000507 ]
  - [   0.0000000000000706,  0.0000000000000141,  0.0000000000001366 ]
  - [   0.0000000000001394,  0.0000000000000603,  0.0000000000000940 ]
  - [   0.0000000000000898,  0.0000000000000343,  0.0000000000000617 ]
  - [   0.0005836533559617, -0.0003508665413512, -0.0003508665412742 ]
  - [   0.0005663419880651,  0.0003653604720080,  0.0003653604719030 ]
  - [   0.0005836533560834,  0.0003508665413431, -0.0003508665413377 ]
  - [   0.0005663419880150, -0.0003653604720121,  0.0003653604718966 ]
  - [   0.0005836533559515, -0.0003508665413513,  0.0003508665413326 ]
  - [   0.0005663419880594,  0.0003653604719538, -0.0003653604719659 ]
  - [   0.0005836533561228,  0.0003508665412858,  0.0003508665413138 ]
  - [   0.0005663419880390, -0.0003653604719636, -0.0003653604719415 ]
  - [   0.0013458133375053,  0.0000000000000383, -0.0000012807027879 ]
  - [  -0.0000000000097555, -0.0000000000000300, -0.0000000000000517 ]
  - [   0.0000000000031622, -0.0000000000000420,  0.0000000000000194 ]
  - [  -0.0000000000032237,  0.0000000000000501, -0.0000000000001539 ]
  - [   0.0013458133374970,  0.0000000000000301,  0.0000012807027400 ]
  - [  -0.0000000000097557, -0.0000000000000301, -0.0000000000000477 ]
  - [   0.0000000000031601, -0.0000000000000502, -0.0000000000001132 ]
  - [  -0.0000000000032295,  0.0000000000000042,  0.0000000000000109 ]
  - [   0.0013458133374109, -0.0000012807027715, -0.0000000000000009 ]
  - [  -0.0000000000098262, -0.0000000000000473,  0.0000000000000161 ]
  - [   0.0013458133373682,  0.0000012807027312,  0.0000000000000745 ]
  - [  -0.0000000000098129, -0.0000000000000335,  0.0000000000000570 ]
  - [   0.0000000000032188,  0.0000000000000163, -0.0000000000000588 ]
  - [  -0.0000000000032001,  0.0000000000000255,  0.0000000000000580 ]
  - [   0.0000000000031787, -0.0000000000000123,  0.0000000000001005 ]
  - [  -0.0000000000033064, -0.0000000000000037,  0.0000000000000700 ]
- atom:   33
  displacement:
    [   0.0100000000000000,  0.0000000000000000,  0.0000000000000000 ]
  forces:
  - [   0.0019016364834429, -0.0000000000004421, -0.0000000000003941 ]
  - [   0.0021317902257866,  0.0000000000003256, -0.0000000000005185 ]
  - [   0.0000000000003014,  0.0000000000003255, -0.0000000000006392 ]
  - [  -0.0000000000008028, -0.0000000000005141, -0.0000000000003135 ]
  - [  -0.0000000000003151, -0.0000000000003133, -0.0000000000004736 ]
  - [   0.0000000000000080, -0.0000000000001204,  0.0000000000005497 ]
  - [  -0.0000000000001414, -0.0000000000002089,  0.0000000000006624 ]
  - [  -0.0000000000005696, -0.0000000000005546, -0.0000000000005481 ]
  - [   0.0005663419883967,  0.0003653604720290,  0.0003653604721533 ]
  - [   0.0005836533559652, -0.0003508665409816, -0.0003508665412514 ]
  - [   0.0005663419883261, -0.0003653604713459,  0.0003653604724666 ]
  - [   0.0005836533561101,  0.0003508665416206, -0.0003508665411268 ]
  - [   0.0005663419884167,  0.0003653604724590, -0.0003653604722983 ]
  - [   0.0005836533556046, -0.0003508665413990,  0.0003508665412627 ]
  - [   0.0005663419883229, -0.0003653604713576, -0.0003653604720078 ]
  - [   0.0005836533555919,  0.0003508665421072,  0.0003508665411827 ]
  - [   0.0013458133371008, -0.0000000000003298, -0.0000012807010709 ]
  - [  -0.0000000000100108, -0.0000000000001082,  0.0000000000004636 ]
  - [   0.0000000000038268, -0.0000000000003296,  0.0000000000002728 ]
  - [  -0.0000000000034344, -0.0000000000003173,  0.0000000000006477 ]
  - [   0.0013458133375593, -0.0000000000002813,  0.0000012807009317 ]
  - [  -0.0000000000100594, -0.0000000000001568, -0.0000000000000251 ]
  - [   0.0000000000035012, -0.0000000000007114,  0.0000000000004833 ]
  - [  -0.0000000000029478, -0.0000000000004339, -0.0000000000001980 ]
  - [   0.0013458133380210, -0.0000012807008834, -0.0000000000001609 ]
  - [  -0.0000000000094664,  0.0000000000001985,  0.0000000000001202 ]
  - [   0.0013458133375503,  0.0000012807011008, -0.0000000000001528 ]
  - [  -0.0000000000094442,  0.0000000000004521,  0.0000000000002245 ]
  - [   0.0000000000034239, -0.0000000000000685,  0.0000000000004293 ]
  - [  -0.0000000000032794,  0.0000000000001134, -0.0000000000004398 ]
  - [   0.0000000000025547, -0.0000000000005700, -0.0000000000000295 ]
  - [  -0.0000000000027106,  0.0000000000007223, -0.0000000000004940 ]
  - [  -0.0264731768594220,  0.0000000000000264,  0.0000000000000079 ]
  - [   0.0000000001613859, -0.0000000000000161,  0.0000000000000663 ]
  - [  -0.0000000000605221,  0.0000000000000584,  0.0000000000000686 ]
  - [   0.0000000000609720, -0.0000000000000181,  0.0000000000001071 ]
  - [  -0.0000000000606593,  0.0000000000000843, -0.0000000000000506 ]
  - [   0.0000000000610182,  0.0000000000000143,  0.0000000000001367 ]
  - [  -0.0000000000244296,  0.0000000000000602,  0.0000000000000940 ]
  - [   0.0000000000245980,  0.0000000000000342,  0.0000000000000618 ]
  - [  -0.0012847625930968, -0.0000068547145415, -0.0000068547144644 ]
  - [   0.0000000000285813,  0.0000000000001690,  0.0000000000000639 ]
  - [  -0.0012847625929829,  0.0000068547145819, -0.0000068547145765 ]
  - [   0.0000000000285229, -0.0000000000001813,  0.0000000000000656 ]
  - [  -0.0012847625931148, -0.0000068547145900,  0.0000068547145714 ]
  - [   0.0000000000285714,  0.0000000000001189, -0.0000000000001308 ]
  - [  -0.0012847625929470,  0.0000068547144370,  0.0000068547144653 ]
  - [   0.0000000000285307, -0.0000000000001490, -0.0000000000001270 ]
  - [   0.0021758593754911,  0.0000000000000383, -0.0034470890683005 ]
  - [   0.0022230320142085, -0.0000000000000302,  0.0035216748792327 ]
  - [  -0.0000000000000255, -0.0000000000000421, -0.0000000000181203 ]
  - [   0.0000000000000150,  0.0000000000000500,  0.0000000000180989 ]
  - [   0.0021758593754830,  0.0000000000000302,  0.0034470890682527 ]
  - [   0.0022230320142084, -0.0000000000000301, -0.0035216748793320 ]
  - [  -0.0000000000000275, -0.0000000000000502,  0.0000000000180268 ]
  - [   0.0000000000000092,  0.0000000000000042, -0.0000000000182419 ]
  - [   0.0021758593753768, -0.0034470890682642, -0.0000000000000011 ]
  - [   0.0022230320141380,  0.0035216748792370,  0.0000000000000163 ]
  - [   0.0021758593753440,  0.0034470890682339,  0.0000000000000745 ]
  - [   0.0022230320141510, -0.0035216748793176,  0.0000000000000568 ]
  - [   0.0000000000000310, -0.0000000000181236, -0.0000000000000590 ]
  - [   0.0000000000000385,  0.0000000000182784,  0.0000000000000581 ]
  - [  -0.0000000000000091,  0.0000000000181276,  0.0000000000001006 ]
  - [  -0.0000000000000677, -0.0000000000182565,  0.0000000000000699 ]
