phonopy:
  version: "2.23.1"
  frequency_unit_conversion_factor: 15.633302
  symmetry_tolerance: 1.00000e-04

space_group:
  type: "Fm-3m"
  number: 225
  Hall_symbol: "-F 4 2 3"

primitive_matrix:
- [ -0.000000000000000,  0.500000000000000,  0.500000000000000 ]
- [  0.500000000000000,  0.000000000000000,  0.500000000000000 ]
- [  0.500000000000000,  0.500000000000000,  0.000000000000000 ]

supercell_matrix:
- [   2,   0,   0 ]
- [   0,   2,   0 ]
- [   0,   0,   2 ]

primitive_cell:
  lattice:
  - [     0.000000000000000,     2.542122339049762,     2.542122339049762 ] # a
  - [     2.542122339049762,     0.000000000000000,     2.542122339049762 ] # b
  - [     2.542122339049762,     2.542122339049762,     0.000000000000000 ] # c
  points:
  - symbol: Li # 1
    coordinates: [  0.000000000000000,  0.000000000000000,  0.000000000000000 ]
    mass: 6.941000
  - symbol: Cl # 2
    coordinates: [  0.500000000000000,  0.500000000000000,  0.500000000000000 ]
    mass: 35.453000
  reciprocal_lattice: # without 2pi
  - [    -0.196686049416055,     0.196686049416055,     0.196686049416055 ] # a*
  - [     0.196686049416055,    -0.196686049416055,     0.196686049416055 ] # b*
  - [     0.196686049416055,     0.196686049416055,    -0.196686049416055 ] # c*

unit_cell:
  lattice:
  - [     5.084244678099525,     0.000000000000000,     0.000000000000000 ] # a
  - [     0.000000000000001,     5.084244678099525,     0.000000000000000 ] # b
  - [     0.000000000000000,     0.000000000000000,     5.084244678099525 ] # c
  points:
  - symbol: Li # 1
    coordinates: [  0.000000000000000,  0.000000000000000,  0.000000000000000 ]
    mass: 6.941000
    reduced_to: 1
  - symbol: Li # 2
    coordinates: [ -0.000000000000000,  0.500000000000000,  0.500000000000000 ]
    mass: 6.941000
    reduced_to: 1
  - symbol: Li # 3
    coordinates: [  0.500000000000000,  0.000000000000000,  0.500000000000000 ]
    mass: 6.941000
    reduced_to: 1
  - symbol: Li # 4
    coordinates: [  0.500000000000000,  0.500000000000000, -0.000000000000000 ]
    mass: 6.941000
    reduced_to: 1
  - symbol: Cl # 5
    coordinates: [  0.500000000000000,  0.000000000000000, -0.000000000000000 ]
    mass: 35.453000
    reduced_to: 5
  - symbol: Cl # 6
    coordinates: [  0.500000000000000,  0.500000000000000,  0.500000000000000 ]
    mass: 35.453000
    reduced_to: 5
  - symbol: Cl # 7
    coordinates: [  0.000000000000000,  0.000000000000000,  0.500000000000000 ]
    mass: 35.453000
    reduced_to: 5
  - symbol: Cl # 8
    coordinates: [ -0.000000000000000,  0.500000000000000, -0.000000000000000 ]
    mass: 35.453000
    reduced_to: 5

supercell:
  lattice:
  - [    10.168489356199050,     0.000000000000000,     0.000000000000001 ] # a
  - [     0.000000000000002,    10.168489356199050,     0.000000000000001 ] # b
  - [     0.000000000000000,     0.000000000000000,    10.168489356199050 ] # c
  points:
  - symbol: Li # 1
    coordinates: [  0.000000000000000,  0.000000000000000,  0.000000000000000 ]
    mass: 6.941000
    reduced_to: 1
  - symbol: Li # 2
    coordinates: [  0.500000000000000,  0.000000000000000,  0.000000000000000 ]
    mass: 6.941000
    reduced_to: 1
  - symbol: Li # 3
    coordinates: [  0.000000000000000,  0.500000000000000,  0.000000000000000 ]
    mass: 6.941000
    reduced_to: 1
  - symbol: Li # 4
    coordinates: [  0.500000000000000,  0.500000000000000,  0.000000000000000 ]
    mass: 6.941000
    reduced_to: 1
  - symbol: Li # 5
    coordinates: [  0.000000000000000,  0.000000000000000,  0.500000000000000 ]
    mass: 6.941000
    reduced_to: 1
  - symbol: Li # 6
    coordinates: [  0.500000000000000,  0.000000000000000,  0.500000000000000 ]
    mass: 6.941000
    reduced_to: 1
  - symbol: Li # 7
    coordinates: [  0.000000000000000,  0.500000000000000,  0.500000000000000 ]
    mass: 6.941000
    reduced_to: 1
  - symbol: Li # 8
    coordinates: [  0.500000000000000,  0.500000000000000,  0.500000000000000 ]
    mass: 6.941000
    reduced_to: 1
  - symbol: Li # 9
    coordinates: [  1.000000000000000,  0.250000000000000,  0.250000000000000 ]
    mass: 6.941000
    reduced_to: 1
  - symbol: Li # 10
    coordinates: [  0.500000000000000,  0.250000000000000,  0.250000000000000 ]
    mass: 6.941000
    reduced_to: 1
  - symbol: Li # 11
    coordinates: [  1.000000000000000,  0.750000000000000,  0.250000000000000 ]
    mass: 6.941000
    reduced_to: 1
  - symbol: Li # 12
    coordinates: [  0.500000000000000,  0.750000000000000,  0.250000000000000 ]
    mass: 6.941000
    reduced_to: 1
  - symbol: Li # 13
    coordinates: [  1.000000000000000,  0.250000000000000,  0.750000000000000 ]
    mass: 6.941000
    reduced_to: 1
  - symbol: Li # 14
    coordinates: [  0.500000000000000,  0.250000000000000,  0.750000000000000 ]
    mass: 6.941000
    reduced_to: 1
  - symbol: Li # 15
    coordinates: [  1.000000000000000,  0.750000000000000,  0.750000000000000 ]
    mass: 6.941000
    reduced_to: 1
  - symbol: Li # 16
    coordinates: [  0.500000000000000,  0.750000000000000,  0.750000000000000 ]
    mass: 6.941000
    reduced_to: 1
  - symbol: Li # 17
    coordinates: [  0.250000000000000,  0.000000000000000,  0.250000000000000 ]
    mass: 6.941000
    reduced_to: 1
  - symbol: Li # 18
    coordinates: [  0.750000000000000,  0.000000000000000,  0.250000000000000 ]
    mass: 6.941000
    reduced_to: 1
  - symbol: Li # 19
    coordinates: [  0.250000000000000,  0.500000000000000,  0.250000000000000 ]
    mass: 6.941000
    reduced_to: 1
  - symbol: Li # 20
    coordinates: [  0.750000000000000,  0.500000000000000,  0.250000000000000 ]
    mass: 6.941000
    reduced_to: 1
  - symbol: Li # 21
    coordinates: [  0.250000000000000,  0.000000000000000,  0.750000000000000 ]
    mass: 6.941000
    reduced_to: 1
  - symbol: Li # 22
    coordinates: [  0.750000000000000,  0.000000000000000,  0.750000000000000 ]
    mass: 6.941000
    reduced_to: 1
  - symbol: Li # 23
    coordinates: [  0.250000000000000,  0.500000000000000,  0.750000000000000 ]
    mass: 6.941000
    reduced_to: 1
  - symbol: Li # 24
    coordinates: [  0.750000000000000,  0.500000000000000,  0.750000000000000 ]
    mass: 6.941000
    reduced_to: 1
  - symbol: Li # 25
    coordinates: [  0.250000000000000,  0.250000000000000,  1.000000000000000 ]
    mass: 6.941000
    reduced_to: 1
  - symbol: Li # 26
    coordinates: [  0.750000000000000,  0.250000000000000,  1.000000000000000 ]
    mass: 6.941000
    reduced_to: 1
  - symbol: Li # 27
    coordinates: [  0.250000000000000,  0.750000000000000,  1.000000000000000 ]
    mass: 6.941000
    reduced_to: 1
  - symbol: Li # 28
    coordinates: [  0.750000000000000,  0.750000000000000,  1.000000000000000 ]
    mass: 6.941000
    reduced_to: 1
  - symbol: Li # 29
    coordinates: [  0.250000000000000,  0.250000000000000,  0.500000000000000 ]
    mass: 6.941000
    reduced_to: 1
  - symbol: Li # 30
    coordinates: [  0.750000000000000,  0.250000000000000,  0.500000000000000 ]
    mass: 6.941000
    reduced_to: 1
  - symbol: Li # 31
    coordinates: [  0.250000000000000,  0.750000000000000,  0.500000000000000 ]
    mass: 6.941000
    reduced_to: 1
  - symbol: Li # 32
    coordinates: [  0.750000000000000,  0.750000000000000,  0.500000000000000 ]
    mass: 6.941000
    reduced_to: 1
  - symbol: Cl # 33
    coordinates: [  0.250000000000000,  0.000000000000000,  1.000000000000000 ]
    mass: 35.453000
    reduced_to: 33
  - symbol: Cl # 34
    coordinates: [  0.750000000000000,  0.000000000000000,  1.000000000000000 ]
    mass: 35.453000
    reduced_to: 33
  - symbol: Cl # 35
    coordinates: [  0.250000000000000,  0.500000000000000,  1.000000000000000 ]
    mass: 35.453000
    reduced_to: 33
  - symbol: Cl # 36
    coordinates: [  0.750000000000000,  0.500000000000000,  1.000000000000000 ]
    mass: 35.453000
    reduced_to: 33
  - symbol: Cl # 37
    coordinates: [  0.250000000000000,  0.000000000000000,  0.500000000000000 ]
    mass: 35.453000
    reduced_to: 33
  - symbol: Cl # 38
    coordinates: [  0.750000000000000,  0.000000000000000,  0.500000000000000 ]
    mass: 35.453000
    reduced_to: 33
  - symbol: Cl # 39
    coordinates: [  0.250000000000000,  0.500000000000000,  0.500000000000000 ]
    mass: 35.453000
    reduced_to: 33
  - symbol: Cl # 40
    coordinates: [  0.750000000000000,  0.500000000000000,  0.500000000000000 ]
    mass: 35.453000
    reduced_to: 33
  - symbol: Cl # 41
    coordinates: [  0.250000000000000,  0.250000000000000,  0.250000000000000 ]
    mass: 35.453000
    reduced_to: 33
  - symbol: Cl # 42
    coordinates: [  0.750000000000000,  0.250000000000000,  0.250000000000000 ]
    mass: 35.453000
    reduced_to: 33
  - symbol: Cl # 43
    coordinates: [  0.250000000000000,  0.750000000000000,  0.250000000000000 ]
    mass: 35.453000
    reduced_to: 33
  - symbol: Cl # 44
    coordinates: [  0.750000000000000,  0.750000000000000,  0.250000000000000 ]
    mass: 35.453000
    reduced_to: 33
  - symbol: Cl # 45
    coordinates: [  0.250000000000000,  0.250000000000000,  0.750000000000000 ]
    mass: 35.453000
    reduced_to: 33
  - symbol: Cl # 46
    coordinates: [  0.750000000000000,  0.250000000000000,  0.750000000000000 ]
    mass: 35.453000
    reduced_to: 33
  - symbol: Cl # 47
    coordinates: [  0.250000000000000,  0.750000000000000,  0.750000000000000 ]
    mass: 35.453000
    reduced_to: 33
  - symbol: Cl # 48
    coordinates: [  0.750000000000000,  0.750000000000000,  0.750000000000000 ]
    mass: 35.453000
    reduced_to: 33
  - symbol: Cl # 49
    coordinates: [  0.000000000000000,  0.000000000000000,  0.250000000000000 ]
    mass: 35.453000
    reduced_to: 33
  - symbol: Cl # 50
    coordinates: [  0.500000000000000,  0.000000000000000,  0.250000000000000 ]
    mass: 35.453000
    reduced_to: 33
  - symbol: Cl # 51
    coordinates: [  0.000000000000000,  0.500000000000000,  0.250000000000000 ]
    mass: 35.453000
    reduced_to: 33
  - symbol: Cl # 52
    coordinates: [  0.500000000000000,  0.500000000000000,  0.250000000000000 ]
    mass: 35.453000
    reduced_to: 33
  - symbol: Cl # 53
    coordinates: [  0.000000000000000,  0.000000000000000,  0.750000000000000 ]
    mass: 35.453000
    reduced_to: 33
  - symbol: Cl # 54
    coordinates: [  0.500000000000000,  0.000000000000000,  0.750000000000000 ]
    mass: 35.453000
    reduced_to: 33
  - symbol: Cl # 55
    coordinates: [  0.000000000000000,  0.500000000000000,  0.750000000000000 ]
    mass: 35.453000
    reduced_to: 33
  - symbol: Cl # 56
    coordinates: [  0.500000000000000,  0.500000000000000,  0.750000000000000 ]
    mass: 35.453000
    reduced_to: 33
  - symbol: Cl # 57
    coordinates: [  1.000000000000000,  0.250000000000000,  1.000000000000000 ]
    mass: 35.453000
    reduced_to: 33
  - symbol: Cl # 58
    coordinates: [  0.500000000000000,  0.250000000000000,  1.000000000000000 ]
    mass: 35.453000
    reduced_to: 33
  - symbol: Cl # 59
    coordinates: [  1.000000000000000,  0.750000000000000,  1.000000000000000 ]
    mass: 35.453000
    reduced_to: 33
  - symbol: Cl # 60
    coordinates: [  0.500000000000000,  0.750000000000000,  1.000000000000000 ]
    mass: 35.453000
    reduced_to: 33
  - symbol: Cl # 61
    coordinates: [  1.000000000000000,  0.250000000000000,  0.500000000000000 ]
    mass: 35.453000
    reduced_to: 33
  - symbol: Cl # 62
    coordinates: [  0.500000000000000,  0.250000000000000,  0.500000000000000 ]
    mass: 35.453000
    reduced_to: 33
  - symbol: Cl # 63
    coordinates: [  1.000000000000000,  0.750000000000000,  0.500000000000000 ]
    mass: 35.453000
    reduced_to: 33
  - symbol: Cl # 64
    coordinates: [  0.500000000000000,  0.750000000000000,  0.500000000000000 ]
    mass: 35.453000
    reduced_to: 33

displacements:
- atom:    1
  displacement:
    [   0.0100000000000000,  0.0000000000000000,  0.0000000000000000 ]
  forces:
  - [  -0.0152958662547381,  0.0000000000001223,  0.0000000000000404 ]
  - [   0.0000000000000990,  0.0000000000001968,  0.0000000000002644 ]
  - [   0.0000000000000667,  0.0000000000000602,  0.0000000000003263 ]
  - [  -0.0000000000003490, -0.0000000000003539, -0.0000000000001293 ]
  - [  -0.0000000000000027,  0.0000000000000227,  0.0000000000003390 ]
  - [   0.0000000000000207,  0.0000000000000201,  0.0000000000001750 ]
  - [  -0.0000000000000941, -0.0000000000002439,  0.0000000000000115 ]
  - [  -0.0000000000002303, -0.0000000000001796, -0.0000000000000370 ]
  - [  -0.0012347140211401, -0.0000043498940500, -0.0000043498942914 ]
  - [   0.0000000000003913, -0.0000000000001559,  0.0000000000001807 ]
  - [  -0.0012347140218292,  0.0000043498942945, -0.0000043498943448 ]
  - [   0.0000000000002594,  0.0000000000003915,  0.0000000000001352 ]
  - [  -0.0012347140213813, -0.0000043498944159,  0.0000043498942572 ]
  - [  -0.0000000000004486, -0.0000000000001255,  0.0000000000001852 ]
  - [  -0.0012347140215641,  0.0000043498944239,  0.0000043498945865 ]
  - [  -0.0000000000002837, -0.0000000000002377,  0.0000000000001031 ]
  - [   0.0009778240209228,  0.0000000000001341,  0.0022212931008346 ]
  - [   0.0009766922613619,  0.0000000000000402, -0.0022027583580721 ]
  - [  -0.0000000000001975, -0.0000000000000317, -0.0000000000003199 ]
  - [  -0.0000000000000975, -0.0000000000001760,  0.0000000000002784 ]
  - [   0.0009778240206936, -0.0000000000000119, -0.0022212931005999 ]
  - [   0.0009766922620028, -0.0000000000005565,  0.0022027583576099 ]
  - [   0.0000000000001268, -0.0000000000001018, -0.0000000000001538 ]
  - [   0.0000000000000757, -0.0000000000001461, -0.0000000000002368 ]
  - [   0.0009778240208325,  0.0022212931008692,  0.0000000000001429 ]
  - [   0.0009766922615856, -0.0022027583574554,  0.0000000000000049 ]
  - [   0.0009778240206287, -0.0022212931009315, -0.0000000000000925 ]
  - [   0.0009766922615063,  0.0022027583575046,  0.0000000000000618 ]
  - [  -0.0000000000000415,  0.0000000000000540, -0.0000000000000696 ]
  - [   0.0000000000002146, -0.0000000000000049, -0.0000000000002794 ]
  - [  -0.0000000000002071, -0.0000000000000582, -0.0000000000003246 ]
  - [   0.0000000000001201,  0.0000000000001796,  0.0000000000000286 ]
  - [   0.0027539169316600,  0.0000000000001229, -0.0000000000001788 ]
  - [   0.0022583028136353,  0.0000000000000092,  0.0000000000003131 ]
  - [   0.0000000000000108, -0.0000000000001274, -0.0000000000000219 ]
  - [   0.0000000000002669,  0.0000000000000335,  0.0000000000000649 ]
  - [  -0.0000000000000291,  0.0000000000003557,  0.0000000000003390 ]
  - [  -0.0000000000001269, -0.0000000000001772, -0.0000000000005076 ]
  - [  -0.0000000000001472, -0.0000000000001470, -0.0000000000001346 ]
  - [  -0.0000000000002058, -0.0000000000001778, -0.0000000000001716 ]
  - [   0.0000398496344150, -0.0005413864444939, -0.0005413864448586 ]
  - [   0.0000256046683427,  0.0005513329572859,  0.0005513329570369 ]
  - [   0.0000398496339519,  0.0005413864446815, -0.0005413864449322 ]
  - [   0.0000256046684583, -0.0005513329573382,  0.0005513329573561 ]
  - [   0.0000398496342703, -0.0005413864446582,  0.0005413864450103 ]
  - [   0.0000256046685219,  0.0005513329571038, -0.0005513329577424 ]
  - [   0.0000398496341404,  0.0005413864451700,  0.0005413864445156 ]
  - [   0.0000256046683461, -0.0005513329574613, -0.0005513329573704 ]
  - [   0.0017856550639347, -0.0000000000000126, -0.0000014114905194 ]
  - [   0.0000000000001411, -0.0000000000001437, -0.0000000000001157 ]
  - [  -0.0000000000001080,  0.0000000000001457, -0.0000000000001083 ]
  - [  -0.0000000000000592, -0.0000000000000316, -0.0000000000003157 ]
  - [   0.0017856550637798, -0.0000000000002157,  0.0000014114907017 ]
  - [  -0.0000000000000353, -0.0000000000000028, -0.0000000000000085 ]
  - [   0.0000000000000257,  0.0000000000000087, -0.0000000000000429 ]
  - [   0.0000000000001272,  0.0000000000001433,  0.0000000000004292 ]
  - [   0.0017856550640616, -0.0000014114905705,  0.0000000000000324 ]
  - [   0.0000000000001368, -0.0000000000001305,  0.0000000000001347 ]
  - [   0.0017856550638717,  0.0000014114912287, -0.0000000000000906 ]
  - [   0.0000000000000371,  0.0000000000000625,  0.0000000000000321 ]
  - [   0.0000000000002331,  0.0000000000001574,  0.0000000000002001 ]
  - [   0.0000000000002299, -0.0000000000000864, -0.0000000000001985 ]
  - [  -0.0000000000003610,  0.0000000000000194,  0.0000000000003184 ]
  - [   0.0000000000001707,  0.0000000000001685,  0.0000000000002187 ]
- atom:   33
  displacement:
    [   0.0100000000000000,  0.0000000000000000,  0.0000000000000000 ]
  forces:
  - [   0.0022583028140064, -0.0000000000000780,  0.0000000000004324 ]
  - [   0.0027539169316670,  0.0000000000001968,  0.0000000000002641 ]
  - [   0.0000000000000668,  0.0000000000000603,  0.0000000000003263 ]
  - [  -0.0000000000003491, -0.0000000000003537, -0.0000000000001293 ]
  - [  -0.0000000000000027,  0.0000000000000227,  0.0000000000003390 ]
  - [   0.0000000000000205,  0.0000000000000200,  0.0000000000001751 ]
  - [  -0.0000000000000940, -0.0000000000002438,  0.0000000000000117 ]
  - [  -0.0000000000002304, -0.0000000000001797, -0.0000000000000370 ]
  - [   0.0000256046687972,  0.0005513329576878,  0.0005513329574464 ]
  - [   0.0000398496345075, -0.0005413864450023, -0.0005413864446658 ]
  - [   0.0000256046680117, -0.0005513329574304,  0.0005513329573802 ]
  - [   0.0000398496343756,  0.0005413864452380, -0.0005413864447112 ]
  - [   0.0000256046685802,  0.0005513329572557, -0.0005513329574143 ]
  - [   0.0000398496338990, -0.0005413864447402,  0.0005413864447996 ]
  - [   0.0000256046683730, -0.0005513329573139, -0.0005513329571512 ]
  - [   0.0000398496339417,  0.0005413864444991,  0.0005413864448401 ]
  - [   0.0017856550642420,  0.0000000000001342, -0.0000014114907358 ]
  - [  -0.0000000000003861,  0.0000000000000401, -0.0000000000002997 ]
  - [  -0.0000000000001976, -0.0000000000000317, -0.0000000000003199 ]
  - [  -0.0000000000000976, -0.0000000000001761,  0.0000000000002786 ]
  - [   0.0017856550640129, -0.0000000000000118,  0.0000014114909704 ]
  - [   0.0000000000001966, -0.0000000000005564, -0.0000000000002204 ]
  - [   0.0000000000001267, -0.0000000000001018, -0.0000000000001537 ]
  - [   0.0000000000000756, -0.0000000000001461, -0.0000000000002368 ]
  - [   0.0017856550641517, -0.0000014114907013,  0.0000000000001428 ]
  - [  -0.0000000000001624,  0.0000000000003171,  0.0000000000000049 ]
  - [   0.0017856550639480,  0.0000014114906390, -0.0000000000000923 ]
  - [  -0.0000000000002418, -0.0000000000002679,  0.0000000000000617 ]
  - [  -0.0000000000000414,  0.0000000000000539, -0.0000000000000697 ]
  - [   0.0000000000002146, -0.0000000000000049, -0.0000000000002795 ]
  - [  -0.0000000000002070, -0.0000000000000581, -0.0000000000003247 ]
  - [   0.0000000000001200,  0.0000000000001797,  0.0000000000000286 ]
  - [  -0.0288956822537633,  0.0000000000001001,  0.0000000000000733 ]
  - [  -0.0000000000003307,  0.0000000000000092,  0.0000000000003132 ]
  - [   0.0000000000000109, -0.0000000000001273, -0.0000000000000220 ]
  - [   0.0000000000002668,  0.0000000000000335,  0.0000000000000650 ]
  - [  -0.0000000000000291,  0.0000000000003556,  0.0000000000003389 ]
  - [  -0.0000000000001270, -0.0000000000001772, -0.0000000000005075 ]
  - [  -0.0000000000001473, -0.0000000000001470, -0.0000000000001344 ]
  - [  -0.0000000000002057, -0.0000000000001777, -0.0000000000001716 ]
  - [  -0.0007808482690077, -0.0000063541061815, -0.0000063541065463 ]
  - [   0.0000000000001197, -0.0000000000002073, -0.0000000000004562 ]
  - [  -0.0007808482694707,  0.0000063541063698, -0.0000063541066208 ]
  - [   0.0000000000000585, -0.0000000000000220,  0.0000000000000400 ]
  - [  -0.0007808482689755, -0.0000063541061490,  0.0000063541065011 ]
  - [   0.0000000000000980, -0.0000000000001886, -0.0000000000004500 ]
  - [  -0.0007808482691197,  0.0000063541066952,  0.0000063541060407 ]
  - [   0.0000000000002194,  0.0000000000001274,  0.0000000000002184 ]
  - [   0.0024320683176191, -0.0000000000000127, -0.0032003522887590 ]
  - [   0.0024685362121821, -0.0000000000001437,  0.0032622422270545 ]
  - [  -0.0000000000001080,  0.0000000000001457, -0.0000000000001082 ]
  - [  -0.0000000000000593, -0.0000000000000316, -0.0000000000003159 ]
  - [   0.0024320683174643, -0.0000000000002157,  0.0032003522889413 ]
  - [   0.0024685362120164, -0.0000000000000027, -0.0032622422271891 ]
  - [   0.0000000000000257,  0.0000000000000088, -0.0000000000000429 ]
  - [   0.0000000000001273,  0.0000000000001434,  0.0000000000004293 ]
  - [   0.0024320683177461, -0.0032003522888102,  0.0000000000000323 ]
  - [   0.0024685362121676,  0.0032622422270292,  0.0000000000001348 ]
  - [   0.0024320683175561,  0.0032003522894686, -0.0000000000000908 ]
  - [   0.0024685362120678, -0.0032622422270972,  0.0000000000000322 ]
  - [   0.0000000000002331,  0.0000000000001574,  0.0000000000002000 ]
  - [   0.0000000000002300, -0.0000000000000864, -0.0000000000001985 ]
  - [  -0.0000000000003609,  0.0000000000000195,  0.0000000000003184 ]
  - [   0.0000000000001708,  0.0000000000001684,  0.0000000000002185 ]
