phonopy:
  version: "2.23.1"
  frequency_unit_conversion_factor: 15.633302
  symmetry_tolerance: 1.00000e-04

space_group:
  type: "Fm-3m"
  number: 225
  Hall_symbol: "-F 4 2 3"

primitive_matrix:
- [ -0.000000000000000,  0.500000000000000,  0.500000000000000 ]
- [  0.500000000000000,  0.000000000000000,  0.500000000000000 ]
- [  0.500000000000000,  0.500000000000000,  0.000000000000000 ]

supercell_matrix:
- [   2,   0,   0 ]
- [   0,   2,   0 ]
- [   0,   0,   2 ]

primitive_cell:
  lattice:
  - [     0.000000000000000,     2.542122339049762,     2.542122339049762 ] # a
  - [     2.542122339049762,     0.000000000000000,     2.542122339049762 ] # b
  - [     2.542122339049762,     2.542122339049762,     0.000000000000000 ] # c
  points:
  - symbol: Li # 1
    coordinates: [  0.000000000000000,  0.000000000000000,  0.000000000000000 ]
    mass: 6.941000
  - symbol: Cl # 2
    coordinates: [  0.500000000000000,  0.500000000000000,  0.500000000000000 ]
    mass: 35.453000
  reciprocal_lattice: # without 2pi
  - [    -0.196686049416055,     0.196686049416055,     0.196686049416055 ] # a*
  - [     0.196686049416055,    -0.196686049416055,     0.196686049416055 ] # b*
  - [     0.196686049416055,     0.196686049416055,    -0.196686049416055 ] # c*

unit_cell:
  lattice:
  - [     5.084244678099525,     0.000000000000000,     0.000000000000000 ] # a
  - [     0.000000000000001,     5.084244678099525,     0.000000000000000 ] # b
  - [     0.000000000000000,     0.000000000000000,     5.084244678099525 ] # c
  points:
  - symbol: Li # 1
    coordinates: [  0.000000000000000,  0.000000000000000,  0.000000000000000 ]
    mass: 6.941000
    reduced_to: 1
  - symbol: Li # 2
    coordinates: [ -0.000000000000000,  0.500000000000000,  0.500000000000000 ]
    mass: 6.941000
    reduced_to: 1
  - symbol: Li # 3
    coordinates: [  0.500000000000000,  0.000000000000000,  0.500000000000000 ]
    mass: 6.941000
    reduced_to: 1
  - symbol: Li # 4
    coordinates: [  0.500000000000000,  0.500000000000000, -0.000000000000000 ]
    mass: 6.941000
    reduced_to: 1
  - symbol: Cl # 5
    coordinates: [  0.500000000000000,  0.000000000000000, -0.000000000000000 ]
    mass: 35.453000
    reduced_to: 5
  - symbol: Cl # 6
    coordinates: [  0.500000000000000,  0.500000000000000,  0.500000000000000 ]
    mass: 35.453000
    reduced_to: 5
  - symbol: Cl # 7
    coordinates: [  0.000000000000000,  0.000000000000000,  0.500000000000000 ]
    mass: 35.453000
    reduced_to: 5
  - symbol: Cl # 8
    coordinates: [ -0.000000000000000,  0.500000000000000, -0.000000000000000 ]
    mass: 35.453000
    reduced_to: 5

supercell:
  lattice:
  - [    10.168489356199050,     0.000000000000000,     0.000000000000001 ] # a
  - [     0.000000000000002,    10.168489356199050,     0.000000000000001 ] # b
  - [     0.000000000000000,     0.000000000000000,    10.168489356199050 ] # c
  points:
  - symbol: Li # 1
    coordinates: [  0.000000000000000,  0.000000000000000,  0.000000000000000 ]
    mass: 6.941000
    reduced_to: 1
  - symbol: Li # 2
    coordinates: [  0.500000000000000,  0.000000000000000,  0.000000000000000 ]
    mass: 6.941000
    reduced_to: 1
  - symbol: Li # 3
    coordinates: [  0.000000000000000,  0.500000000000000,  0.000000000000000 ]
    mass: 6.941000
    reduced_to: 1
  - symbol: Li # 4
    coordinates: [  0.500000000000000,  0.500000000000000,  0.000000000000000 ]
    mass: 6.941000
    reduced_to: 1
  - symbol: Li # 5
    coordinates: [  0.000000000000000,  0.000000000000000,  0.500000000000000 ]
    mass: 6.941000
    reduced_to: 1
  - symbol: Li # 6
    coordinates: [  0.500000000000000,  0.000000000000000,  0.500000000000000 ]
    mass: 6.941000
    reduced_to: 1
  - symbol: Li # 7
    coordinates: [  0.000000000000000,  0.500000000000000,  0.500000000000000 ]
    mass: 6.941000
    reduced_to: 1
  - symbol: Li # 8
    coordinates: [  0.500000000000000,  0.500000000000000,  0.500000000000000 ]
    mass: 6.941000
    reduced_to: 1
  - symbol: Li # 9
    coordinates: [  1.000000000000000,  0.250000000000000,  0.250000000000000 ]
    mass: 6.941000
    reduced_to: 1
  - symbol: Li # 10
    coordinates: [  0.500000000000000,  0.250000000000000,  0.250000000000000 ]
    mass: 6.941000
    reduced_to: 1
  - symbol: Li # 11
    coordinates: [  1.000000000000000,  0.750000000000000,  0.250000000000000 ]
    mass: 6.941000
    reduced_to: 1
  - symbol: Li # 12
    coordinates: [  0.500000000000000,  0.750000000000000,  0.250000000000000 ]
    mass: 6.941000
    reduced_to: 1
  - symbol: Li # 13
    coordinates: [  1.000000000000000,  0.250000000000000,  0.750000000000000 ]
    mass: 6.941000
    reduced_to: 1
  - symbol: Li # 14
    coordinates: [  0.500000000000000,  0.250000000000000,  0.750000000000000 ]
    mass: 6.941000
    reduced_to: 1
  - symbol: Li # 15
    coordinates: [  1.000000000000000,  0.750000000000000,  0.750000000000000 ]
    mass: 6.941000
    reduced_to: 1
  - symbol: Li # 16
    coordinates: [  0.500000000000000,  0.750000000000000,  0.750000000000000 ]
    mass: 6.941000
    reduced_to: 1
  - symbol: Li # 17
    coordinates: [  0.250000000000000,  0.000000000000000,  0.250000000000000 ]
    mass: 6.941000
    reduced_to: 1
  - symbol: Li # 18
    coordinates: [  0.750000000000000,  0.000000000000000,  0.250000000000000 ]
    mass: 6.941000
    reduced_to: 1
  - symbol: Li # 19
    coordinates: [  0.250000000000000,  0.500000000000000,  0.250000000000000 ]
    mass: 6.941000
    reduced_to: 1
  - symbol: Li # 20
    coordinates: [  0.750000000000000,  0.500000000000000,  0.250000000000000 ]
    mass: 6.941000
    reduced_to: 1
  - symbol: Li # 21
    coordinates: [  0.250000000000000,  0.000000000000000,  0.750000000000000 ]
    mass: 6.941000
    reduced_to: 1
  - symbol: Li # 22
    coordinates: [  0.750000000000000,  0.000000000000000,  0.750000000000000 ]
    mass: 6.941000
    reduced_to: 1
  - symbol: Li # 23
    coordinates: [  0.250000000000000,  0.500000000000000,  0.750000000000000 ]
    mass: 6.941000
    reduced_to: 1
  - symbol: Li # 24
    coordinates: [  0.750000000000000,  0.500000000000000,  0.750000000000000 ]
    mass: 6.941000
    reduced_to: 1
  - symbol: Li # 25
    coordinates: [  0.250000000000000,  0.250000000000000,  1.000000000000000 ]
    mass: 6.941000
    reduced_to: 1
  - symbol: Li # 26
    coordinates: [  0.750000000000000,  0.250000000000000,  1.000000000000000 ]
    mass: 6.941000
    reduced_to: 1
  - symbol: Li # 27
    coordinates: [  0.250000000000000,  0.750000000000000,  1.000000000000000 ]
    mass: 6.941000
    reduced_to: 1
  - symbol: Li # 28
    coordinates: [  0.750000000000000,  0.750000000000000,  1.000000000000000 ]
    mass: 6.941000
    reduced_to: 1
  - symbol: Li # 29
    coordinates: [  0.250000000000000,  0.250000000000000,  0.500000000000000 ]
    mass: 6.941000
    reduced_to: 1
  - symbol: Li # 30
    coordinates: [  0.750000000000000,  0.250000000000000,  0.500000000000000 ]
    mass: 6.941000
    reduced_to: 1
  - symbol: Li # 31
    coordinates: [  0.250000000000000,  0.750000000000000,  0.500000000000000 ]
    mass: 6.941000
    reduced_to: 1
  - symbol: Li # 32
    coordinates: [  0.750000000000000,  0.750000000000000,  0.500000000000000 ]
    mass: 6.941000
    reduced_to: 1
  - symbol: Cl # 33
    coordinates: [  0.250000000000000,  0.000000000000000,  1.000000000000000 ]
    mass: 35.453000
    reduced_to: 33
  - symbol: Cl # 34
    coordinates: [  0.750000000000000,  0.000000000000000,  1.000000000000000 ]
    mass: 35.453000
    reduced_to: 33
  - symbol: Cl # 35
    coordinates: [  0.250000000000000,  0.500000000000000,  1.000000000000000 ]
    mass: 35.453000
    reduced_to: 33
  - symbol: Cl # 36
    coordinates: [  0.750000000000000,  0.500000000000000,  1.000000000000000 ]
    mass: 35.453000
    reduced_to: 33
  - symbol: Cl # 37
    coordinates: [  0.250000000000000,  0.000000000000000,  0.500000000000000 ]
    mass: 35.453000
    reduced_to: 33
  - symbol: Cl # 38
    coordinates: [  0.750000000000000,  0.000000000000000,  0.500000000000000 ]
    mass: 35.453000
    reduced_to: 33
  - symbol: Cl # 39
    coordinates: [  0.250000000000000,  0.500000000000000,  0.500000000000000 ]
    mass: 35.453000
    reduced_to: 33
  - symbol: Cl # 40
    coordinates: [  0.750000000000000,  0.500000000000000,  0.500000000000000 ]
    mass: 35.453000
    reduced_to: 33
  - symbol: Cl # 41
    coordinates: [  0.250000000000000,  0.250000000000000,  0.250000000000000 ]
    mass: 35.453000
    reduced_to: 33
  - symbol: Cl # 42
    coordinates: [  0.750000000000000,  0.250000000000000,  0.250000000000000 ]
    mass: 35.453000
    reduced_to: 33
  - symbol: Cl # 43
    coordinates: [  0.250000000000000,  0.750000000000000,  0.250000000000000 ]
    mass: 35.453000
    reduced_to: 33
  - symbol: Cl # 44
    coordinates: [  0.750000000000000,  0.750000000000000,  0.250000000000000 ]
    mass: 35.453000
    reduced_to: 33
  - symbol: Cl # 45
    coordinates: [  0.250000000000000,  0.250000000000000,  0.750000000000000 ]
    mass: 35.453000
    reduced_to: 33
  - symbol: Cl # 46
    coordinates: [  0.750000000000000,  0.250000000000000,  0.750000000000000 ]
    mass: 35.453000
    reduced_to: 33
  - symbol: Cl # 47
    coordinates: [  0.250000000000000,  0.750000000000000,  0.750000000000000 ]
    mass: 35.453000
    reduced_to: 33
  - symbol: Cl # 48
    coordinates: [  0.750000000000000,  0.750000000000000,  0.750000000000000 ]
    mass: 35.453000
    reduced_to: 33
  - symbol: Cl # 49
    coordinates: [  0.000000000000000,  0.000000000000000,  0.250000000000000 ]
    mass: 35.453000
    reduced_to: 33
  - symbol: Cl # 50
    coordinates: [  0.500000000000000,  0.000000000000000,  0.250000000000000 ]
    mass: 35.453000
    reduced_to: 33
  - symbol: Cl # 51
    coordinates: [  0.000000000000000,  0.500000000000000,  0.250000000000000 ]
    mass: 35.453000
    reduced_to: 33
  - symbol: Cl # 52
    coordinates: [  0.500000000000000,  0.500000000000000,  0.250000000000000 ]
    mass: 35.453000
    reduced_to: 33
  - symbol: Cl # 53
    coordinates: [  0.000000000000000,  0.000000000000000,  0.750000000000000 ]
    mass: 35.453000
    reduced_to: 33
  - symbol: Cl # 54
    coordinates: [  0.500000000000000,  0.000000000000000,  0.750000000000000 ]
    mass: 35.453000
    reduced_to: 33
  - symbol: Cl # 55
    coordinates: [  0.000000000000000,  0.500000000000000,  0.750000000000000 ]
    mass: 35.453000
    reduced_to: 33
  - symbol: Cl # 56
    coordinates: [  0.500000000000000,  0.500000000000000,  0.750000000000000 ]
    mass: 35.453000
    reduced_to: 33
  - symbol: Cl # 57
    coordinates: [  1.000000000000000,  0.250000000000000,  1.000000000000000 ]
    mass: 35.453000
    reduced_to: 33
  - symbol: Cl # 58
    coordinates: [  0.500000000000000,  0.250000000000000,  1.000000000000000 ]
    mass: 35.453000
    reduced_to: 33
  - symbol: Cl # 59
    coordinates: [  1.000000000000000,  0.750000000000000,  1.000000000000000 ]
    mass: 35.453000
    reduced_to: 33
  - symbol: Cl # 60
    coordinates: [  0.500000000000000,  0.750000000000000,  1.000000000000000 ]
    mass: 35.453000
    reduced_to: 33
  - symbol: Cl # 61
    coordinates: [  1.000000000000000,  0.250000000000000,  0.500000000000000 ]
    mass: 35.453000
    reduced_to: 33
  - symbol: Cl # 62
    coordinates: [  0.500000000000000,  0.250000000000000,  0.500000000000000 ]
    mass: 35.453000
    reduced_to: 33
  - symbol: Cl # 63
    coordinates: [  1.000000000000000,  0.750000000000000,  0.500000000000000 ]
    mass: 35.453000
    reduced_to: 33
  - symbol: Cl # 64
    coordinates: [  0.500000000000000,  0.750000000000000,  0.500000000000000 ]
    mass: 35.453000
    reduced_to: 33

displacements:
- atom:    1
  displacement:
    [   0.0100000000000000,  0.0000000000000000,  0.0000000000000000 ]
  forces:
  - [  -0.0152032491784766, -0.0000000000000490,  0.0000000000000663 ]
  - [   0.0000000000000320, -0.0000000000000145, -0.0000000000001014 ]
  - [  -0.0000000000000421, -0.0000000000000534, -0.0000000000000307 ]
  - [  -0.0000000000000555, -0.0000000000000371,  0.0000000000001541 ]
  - [  -0.0000000000000589,  0.0000000000000259,  0.0000000000000972 ]
  - [   0.0000000000000541,  0.0000000000000123,  0.0000000000003041 ]
  - [  -0.0000000000001190, -0.0000000000000676,  0.0000000000002545 ]
  - [  -0.0000000000000565, -0.0000000000000775, -0.0000000000000310 ]
  - [  -0.0012307835169645, -0.0000043124052926, -0.0000043124053912 ]
  - [   0.0000000000003476, -0.0000000000000049, -0.0000000000000783 ]
  - [  -0.0012307835168997,  0.0000043124055018, -0.0000043124054390 ]
  - [   0.0000000000002058,  0.0000000000000442,  0.0000000000000751 ]
  - [  -0.0012307835169793, -0.0000043124054461,  0.0000043124054441 ]
  - [   0.0000000000001897, -0.0000000000001349, -0.0000000000001440 ]
  - [  -0.0012307835169721,  0.0000043124053419,  0.0000043124053119 ]
  - [   0.0000000000002550,  0.0000000000001033,  0.0000000000000230 ]
  - [   0.0009626975444717, -0.0000000000000648,  0.0022021607110400 ]
  - [   0.0009616902020273,  0.0000000000001138, -0.0021838998303390 ]
  - [  -0.0000000000000520,  0.0000000000000691, -0.0000000000000627 ]
  - [  -0.0000000000000470, -0.0000000000000997,  0.0000000000000855 ]
  - [   0.0009626975444419, -0.0000000000000320, -0.0022021607109784 ]
  - [   0.0009616902020606, -0.0000000000001407,  0.0021838998301854 ]
  - [  -0.0000000000000514, -0.0000000000000617, -0.0000000000000432 ]
  - [   0.0000000000000393,  0.0000000000000449,  0.0000000000000028 ]
  - [   0.0009626975444246,  0.0022021607111648, -0.0000000000000156 ]
  - [   0.0009616902022628, -0.0021838998302607, -0.0000000000000242 ]
  - [   0.0009626975441952, -0.0022021607110763, -0.0000000000000882 ]
  - [   0.0009616902020806,  0.0021838998302837, -0.0000000000001595 ]
  - [  -0.0000000000001024,  0.0000000000000622,  0.0000000000002935 ]
  - [   0.0000000000001298,  0.0000000000000144, -0.0000000000000792 ]
  - [  -0.0000000000002833, -0.0000000000000197, -0.0000000000001164 ]
  - [   0.0000000000000039,  0.0000000000000775,  0.0000000000001311 ]
  - [   0.0027465194722050, -0.0000000000000061, -0.0000000000000838 ]
  - [   0.0022475256414450,  0.0000000000000543,  0.0000000000000215 ]
  - [  -0.0000000000000365, -0.0000000000000238,  0.0000000000000434 ]
  - [  -0.0000000000001007, -0.0000000000000277,  0.0000000000000349 ]
  - [  -0.0000000000001756,  0.0000000000000506,  0.0000000000001959 ]
  - [   0.0000000000001939,  0.0000000000001060,  0.0000000000000010 ]
  - [  -0.0000000000000001,  0.0000000000001356,  0.0000000000000613 ]
  - [  -0.0000000000001194,  0.0000000000000468, -0.0000000000000615 ]
  - [   0.0000443021165530, -0.0005355456918094, -0.0005355456919509 ]
  - [   0.0000303331631897,  0.0005452630451783,  0.0005452630454044 ]
  - [   0.0000443021164729,  0.0005355456918759, -0.0005355456917031 ]
  - [   0.0000303331630039, -0.0005452630454988,  0.0005452630454035 ]
  - [   0.0000443021166461, -0.0005355456918754,  0.0005355456918575 ]
  - [   0.0000303331631216,  0.0005452630451835, -0.0005452630455161 ]
  - [   0.0000443021164663,  0.0005355456919770,  0.0005355456915831 ]
  - [   0.0000303331628885, -0.0005452630455892, -0.0005452630455577 ]
  - [   0.0017840615068261,  0.0000000000000475, -0.0000013961607785 ]
  - [  -0.0000000000000073, -0.0000000000000112, -0.0000000000000586 ]
  - [   0.0000000000000108,  0.0000000000000697, -0.0000000000000588 ]
  - [   0.0000000000000532, -0.0000000000000137, -0.0000000000000693 ]
  - [   0.0017840615069483, -0.0000000000000312,  0.0000013961607664 ]
  - [  -0.0000000000000975,  0.0000000000000519,  0.0000000000001104 ]
  - [  -0.0000000000001113,  0.0000000000000639, -0.0000000000000174 ]
  - [   0.0000000000000682,  0.0000000000000102, -0.0000000000002137 ]
  - [   0.0017840615067902, -0.0000013961609287,  0.0000000000001455 ]
  - [   0.0000000000001362, -0.0000000000000514, -0.0000000000000424 ]
  - [   0.0017840615069975,  0.0000013961609040, -0.0000000000000464 ]
  - [   0.0000000000002143, -0.0000000000000161, -0.0000000000000487 ]
  - [  -0.0000000000000660, -0.0000000000000985, -0.0000000000000454 ]
  - [   0.0000000000000688,  0.0000000000002131,  0.0000000000001249 ]
  - [   0.0000000000001262,  0.0000000000001171,  0.0000000000000696 ]
  - [   0.0000000000002269, -0.0000000000000306,  0.0000000000000823 ]
- atom:   33
  displacement:
    [   0.0100000000000000,  0.0000000000000000,  0.0000000000000000 ]
  forces:
  - [   0.0022475256413169,  0.0000000000000132, -0.0000000000000211 ]
  - [   0.0027465194724323, -0.0000000000000146, -0.0000000000001014 ]
  - [  -0.0000000000000421, -0.0000000000000536, -0.0000000000000307 ]
  - [  -0.0000000000000555, -0.0000000000000372,  0.0000000000001543 ]
  - [  -0.0000000000000590,  0.0000000000000258,  0.0000000000000974 ]
  - [   0.0000000000000540,  0.0000000000000123,  0.0000000000003041 ]
  - [  -0.0000000000001190, -0.0000000000000677,  0.0000000000002544 ]
  - [  -0.0000000000000566, -0.0000000000000774, -0.0000000000000310 ]
  - [   0.0000303331630792,  0.0005452630454405,  0.0005452630453419 ]
  - [   0.0000443021169771, -0.0005355456918422, -0.0005355456919156 ]
  - [   0.0000303331630924, -0.0005452630454093,  0.0005452630454720 ]
  - [   0.0000443021168353,  0.0005355456918816, -0.0005355456917621 ]
  - [   0.0000303331630435,  0.0005452630453950, -0.0005452630453974 ]
  - [   0.0000443021167985, -0.0005355456919927,  0.0005355456917137 ]
  - [   0.0000303331630717, -0.0005452630453912, -0.0005452630454212 ]
  - [   0.0000443021168745,  0.0005355456919508,  0.0005355456918705 ]
  - [   0.0017840615068755, -0.0000000000000648, -0.0000013961606969 ]
  - [  -0.0000000000001269,  0.0000000000001139, -0.0000000000000297 ]
  - [  -0.0000000000000520,  0.0000000000000690, -0.0000000000000627 ]
  - [  -0.0000000000000469, -0.0000000000000997,  0.0000000000000853 ]
  - [   0.0017840615068455, -0.0000000000000319,  0.0000013961607584 ]
  - [  -0.0000000000000597, -0.0000000000001405, -0.0000000000000897 ]
  - [  -0.0000000000000516, -0.0000000000000618, -0.0000000000000433 ]
  - [   0.0000000000000394,  0.0000000000000449,  0.0000000000000028 ]
  - [   0.0017840615067420, -0.0000013961606586, -0.0000000000000154 ]
  - [   0.0000000000001084,  0.0000000000000485, -0.0000000000000243 ]
  - [   0.0017840615065992,  0.0000013961606603, -0.0000000000000881 ]
  - [  -0.0000000000000204,  0.0000000000000281, -0.0000000000001596 ]
  - [  -0.0000000000001026,  0.0000000000000621,  0.0000000000002935 ]
  - [   0.0000000000001299,  0.0000000000000144, -0.0000000000000791 ]
  - [  -0.0000000000002835, -0.0000000000000197, -0.0000000000001167 ]
  - [   0.0000000000000039,  0.0000000000000774,  0.0000000000001311 ]
  - [  -0.0288951226129440,  0.0000000000000080, -0.0000000000000720 ]
  - [   0.0000000000001075,  0.0000000000000543,  0.0000000000000215 ]
  - [  -0.0000000000000365, -0.0000000000000238,  0.0000000000000434 ]
  - [  -0.0000000000001007, -0.0000000000000278,  0.0000000000000349 ]
  - [  -0.0000000000001754,  0.0000000000000505,  0.0000000000001958 ]
  - [   0.0000000000001939,  0.0000000000001059,  0.0000000000000012 ]
  - [  -0.0000000000000001,  0.0000000000001356,  0.0000000000000613 ]
  - [  -0.0000000000001195,  0.0000000000000468, -0.0000000000000614 ]
  - [  -0.0007812738666638, -0.0000063521441494, -0.0000063521442911 ]
  - [   0.0000000000001187, -0.0000000000002033,  0.0000000000000229 ]
  - [  -0.0007812738667439,  0.0000063521441575, -0.0000063521439847 ]
  - [  -0.0000000000000860, -0.0000000000001356,  0.0000000000000403 ]
  - [  -0.0007812738665522, -0.0000063521441191,  0.0000063521441012 ]
  - [   0.0000000000000527, -0.0000000000002004, -0.0000000000001322 ]
  - [  -0.0007812738667442,  0.0000063521443183,  0.0000063521439244 ]
  - [  -0.0000000000001640, -0.0000000000001891, -0.0000000000001575 ]
  - [   0.0024307105594774,  0.0000000000000475, -0.0031994237732066 ]
  - [   0.0024671358952762, -0.0000000000000112,  0.0032612636506276 ]
  - [   0.0000000000000107,  0.0000000000000697, -0.0000000000000588 ]
  - [   0.0000000000000531, -0.0000000000000136, -0.0000000000000693 ]
  - [   0.0024307105595996, -0.0000000000000313,  0.0031994237731945 ]
  - [   0.0024671358952476,  0.0000000000000519, -0.0032612636506374 ]
  - [  -0.0000000000001113,  0.0000000000000639, -0.0000000000000173 ]
  - [   0.0000000000000681,  0.0000000000000103, -0.0000000000002137 ]
  - [   0.0024307105594416, -0.0031994237733569,  0.0000000000001454 ]
  - [   0.0024671358954339,  0.0032612636506493, -0.0000000000000424 ]
  - [   0.0024307105596488,  0.0031994237733321, -0.0000000000000464 ]
  - [   0.0024671358955123, -0.0032612636507166, -0.0000000000000487 ]
  - [  -0.0000000000000661, -0.0000000000000984, -0.0000000000000454 ]
  - [   0.0000000000000689,  0.0000000000002132,  0.0000000000001250 ]
  - [   0.0000000000001262,  0.0000000000001171,  0.0000000000000696 ]
  - [   0.0000000000002271, -0.0000000000000306,  0.0000000000000823 ]
