 vasp.5.4.4.18Apr17-6-g9f103f2a35 (build Oct 28 2022 12:13:54) complex           
 executed on             LinuxGNU date 2024.01.08  12:49:23
 running on   88 total cores
 distrk:  each k-point on   88 cores,    1 groups
 distr:  one band on NCORES_PER_BAND=  22 cores,    4 groups


--------------------------------------------------------------------------------------------------------


 INCAR:
 POTCAR:    PAW_PBE Li_sv 10Sep2004               
 POTCAR:    PAW_PBE Cl 06Sep2000                  

 ----------------------------------------------------------------------------- 
|                                                                             |
|           W    W    AA    RRRRR   N    N  II  N    N   GGGG   !!!           |
|           W    W   A  A   R    R  NN   N  II  NN   N  G    G  !!!           |
|           W    W  A    A  R    R  N N  N  II  N N  N  G       !!!           |
|           W WW W  AAAAAA  RRRRR   N  N N  II  N  N N  G  GGG   !            |
|           WW  WW  A    A  R   R   N   NN  II  N   NN  G    G                |
|           W    W  A    A  R    R  N    N  II  N    N   GGGG   !!!           |
|                                                                             |
|      For optimal performance we recommend to set                            |
|        NCORE= 4 - approx SQRT( number of cores)                             |
|      NCORE specifies how many cores store one orbital (NPAR=cpu/NCORE).     |
|      This setting can  greatly improve the performance of VASP for DFT.     |
|      The default,   NCORE=1            might be grossly inefficient         |
|      on modern multi-core architectures or massively parallel machines.     |
|      Do your own testing !!!!                                               |
|      Unfortunately you need to use the default for GW and RPA calculations. |
|      (for HF NCORE is supported but not extensively tested yet)             |
|                                                                             |
 ----------------------------------------------------------------------------- 

 POTCAR:    PAW_PBE Li_sv 10Sep2004               
   VRHFIN =Li: 1s2s2p                                                           
   LEXCH  = PE                                                                  
   EATOM  =   202.7858 eV,   14.9043 Ry                                         
                                                                                
   TITEL  = PAW_PBE Li_sv 10Sep2004                                             
   LULTRA =        F    use ultrasoft PP ?                                      
   IUNSCR =        0    unscreen: 0-lin 1-nonlin 2-no                           
   RPACOR =    0.000    partial core radius                                     
   POMASS =    7.010; ZVAL   =    3.000    mass and valenz                      
   RCORE  =    1.700    outmost cutoff radius                                   
   RWIGS  =    2.050; RWIGS  =    1.085    wigner-seitz radius (au A)           
   ENMAX  =  499.034; ENMIN  =  374.276 eV                                      
   ICORE  =        2    local potential                                         
   LCOR   =        T    correct aug charges                                     
   LPAW   =        T    paw PP                                                  
   EAUG   =  628.945                                                            
   RMAX   =    1.732    core radius for proj-oper                               
   RAUG   =    1.300    factor for augmentation sphere                          
   RDEP   =    1.728    radius for radial grids                                 
   RDEPT  =    1.329    core radius for aug-charge                              
                                                                                
   Atomic configuration                                                         
    4 entries                                                                   
     n  l   j            E        occ.                                          
     1  0  0.50       -51.8549   2.0000                                         
     2  0  0.50        -2.8742   1.0000                                         
     2  1  0.50        -1.3606   0.0000                                         
     3  2  1.50        -1.3606   0.0000                                         
   Description                                                                  
     l       E           TYP  RCUT    TYP  RCUT                                 
     0    -51.8548813     23  1.400                                             
     0     -2.8742052     23  1.700                                             
     1     -1.3605826     23  1.400                                             
     2     -1.3605826     23  1.400                                             
  local pseudopotential read in
  atomic valenz-charges read in
  non local Contribution for L=           0  read in
    real space projection operators read in
  non local Contribution for L=           0  read in
    real space projection operators read in
  non local Contribution for L=           1  read in
    real space projection operators read in
    PAW grid and wavefunctions read in

   number of l-projection  operators is LMAX  =           3
   number of lm-projection operators is LMMAX =           5

 POTCAR:    PAW_PBE Cl 06Sep2000                  
   VRHFIN =Cl: s2p5                                                             
   LEXCH  = PE                                                                  
   EATOM  =   409.7259 eV,   30.1140 Ry                                         
                                                                                
   TITEL  = PAW_PBE Cl 06Sep2000                                                
   LULTRA =        F    use ultrasoft PP ?                                      
   IUNSCR =        1    unscreen: 0-lin 1-nonlin 2-no                           
   RPACOR =    1.500    partial core radius                                     
   POMASS =   35.453; ZVAL   =    7.000    mass and valenz                      
   RCORE  =    1.900    outmost cutoff radius                                   
   RWIGS  =    2.100; RWIGS  =    1.111    wigner-seitz radius (au A)           
   ENMAX  =  262.472; ENMIN  =  196.854 eV                                      
   ICORE  =        2    local potential                                         
   LCOR   =        T    correct aug charges                                     
   LPAW   =        T    paw PP                                                  
   EAUG   =  356.192                                                            
   DEXC   =    0.000                                                            
   RMAX   =    1.945    core radius for proj-oper                               
   RAUG   =    1.300    factor for augmentation sphere                          
   RDEP   =    2.020    radius for radial grids                                 
   RDEPT  =    1.678    core radius for aug-charge                              
                                                                                
   Atomic configuration                                                         
    6 entries                                                                   
     n  l   j            E        occ.                                          
     1  0  0.50     -2751.1850   2.0000                                         
     2  0  0.50      -252.6861   2.0000                                         
     2  1  1.50      -191.6157   6.0000                                         
     3  0  0.50       -20.6916   2.0000                                         
     3  1  0.50        -8.5949   5.0000                                         
     3  2  1.50        -8.1635   0.0000                                         
   Description                                                                  
     l       E           TYP  RCUT    TYP  RCUT                                 
     0    -20.6915656     23  1.900                                             
     0    -22.0521482     23  1.900                                             
     1     -8.5948577     23  1.900                                             
     1     -5.3847331     23  1.900                                             
     2     -8.1634956     23  1.900                                             
  local pseudopotential read in
  partial core-charges read in
  partial kinetic energy density read in
  atomic valenz-charges read in
  non local Contribution for L=           0  read in
    real space projection operators read in
  non local Contribution for L=           0  read in
    real space projection operators read in
  non local Contribution for L=           1  read in
    real space projection operators read in
  non local Contribution for L=           1  read in
    real space projection operators read in
    PAW grid and wavefunctions read in

   number of l-projection  operators is LMAX  =           4
   number of lm-projection operators is LMMAX =           8


 ----------------------------------------------------------------------------- 
|                                                                             |
|  ADVICE TO THIS USER RUNNING 'VASP/VAMP'   (HEAR YOUR MASTER'S VOICE ...):  |
|                                                                             |
|      You enforced a specific xc-type in the INCAR file,                     |
|      a different type was found on the POTCAR file                          |
|          I HOPE YOU KNOW, WHAT YOU ARE  DOING                               |
|                                                                             |
 ----------------------------------------------------------------------------- 

  PAW_PBE Li_sv 10Sep2004               :
 energy of atom  1       EATOM= -202.7858
 kinetic energy error for atom=    0.0045 (will be added to EATOM!!)
  PAW_PBE Cl 06Sep2000                  :
 energy of atom  2       EATOM= -409.7259
 kinetic energy error for atom=    0.0011 (will be added to EATOM!!)


 POSCAR: Li4 Cl4                                 
  positions in direct lattice
  No initial velocities read in
 exchange correlation table for  LEXCH =       14
   RHO(1)=    0.500       N(1)  =     2000
   RHO(2)=  100.500       N(2)  =     4000



--------------------------------------------------------------------------------------------------------


 ion  position               nearest neighbor table
   1  0.000  0.000  0.000-   5 2.53   7 2.53   8 2.53   7 2.53   8 2.53   5 2.53
   2  0.000  0.500  0.500-   6 2.53   7 2.53   8 2.53   8 2.53   7 2.53   6 2.53
   3  0.500  0.000  0.500-   5 2.53   6 2.53   7 2.53   5 2.53   6 2.53   7 2.53
   4  0.500  0.500  0.000-   5 2.53   6 2.53   8 2.53   6 2.53   5 2.53   8 2.53
   5  0.500  0.000  0.000-   1 2.53   3 2.53   4 2.53   3 2.53   4 2.53   1 2.53
   6  0.500  0.500  0.500-   2 2.53   3 2.53   4 2.53   4 2.53   3 2.53   2 2.53
   7  0.000  0.000  0.500-   1 2.53   2 2.53   3 2.53   1 2.53   2 2.53   3 2.53
   8  0.000  0.500  0.000-   1 2.53   2 2.53   4 2.53   2 2.53   1 2.53   4 2.53

  LATTYP: Found a simple cubic cell.
 ALAT       =     5.0610191446
  
  Lattice vectors:
  
 A1 = (   5.0610191446,  -0.0000000000,   0.0000000000)
 A2 = (   0.0000000000,   5.0610191446,   0.0000000000)
 A3 = (   0.0000000000,  -0.0000000000,   5.0610191446)


Analysis of symmetry for initial positions (statically):
=====================================================================
 Subroutine PRICEL returns following result:
 
  LATTYP: Found a face centered cubic cell.
 ALAT       =     5.0610191446
  
  Lattice vectors:
  
 A1 = (   2.5305095723,   2.5305095723,   0.0000000000)
 A2 = (   2.5305095723,  -0.0000000000,  -2.5305095723)
 A3 = (   0.0000000000,   2.5305095723,  -2.5305095723)
 
   4 primitive cells build up your supercell.
 

 Routine SETGRP: Setting up the symmetry group for a 
 simple cubic supercell.


 Subroutine GETGRP returns: Found 48 space group operations
 (whereof 48 operations were pure point group operations)
 out of a pool of 48 trial point group operations.


The static configuration has the point symmetry O_h .


Analysis of symmetry for dynamics (positions and initial velocities):
=====================================================================
 Subroutine PRICEL returns following result:
 
  LATTYP: Found a face centered cubic cell.
 ALAT       =     5.0610191446
  
  Lattice vectors:
  
 A1 = (   2.5305095723,   2.5305095723,   0.0000000000)
 A2 = (   2.5305095723,  -0.0000000000,  -2.5305095723)
 A3 = (   0.0000000000,   2.5305095723,  -2.5305095723)
 
   4 primitive cells build up your supercell.
 

 Routine SETGRP: Setting up the symmetry group for a 
 simple cubic supercell.


 Subroutine GETGRP returns: Found 48 space group operations
 (whereof 48 operations were pure point group operations)
 out of a pool of 48 trial point group operations.


The dynamic configuration has the point symmetry O_h .


 Subroutine INISYM returns: Found 48 space group operations
 (whereof 48 operations are pure point group operations),
 and found     4 'primitive' translations



 KPOINTS: pymatgen with grid density = 980 / numbe

Automatic generation of k-mesh.
Space group operators:
 irot       det(A)        alpha          n_x          n_y          n_z        tau_x        tau_y        tau_z
    1     1.000000     0.000001     1.000000     0.000000     0.000000     0.000000     0.000000    -0.000000
    2    -1.000000     0.000001     1.000000     0.000000     0.000000     0.000000     0.000000    -0.000000
    3     1.000000   120.000000    -0.577350    -0.577350    -0.577350     0.000000     0.000000    -0.000000
    4    -1.000000   120.000000    -0.577350    -0.577350    -0.577350     0.000000     0.000000    -0.000000
    5     1.000000   120.000000     0.577350     0.577350     0.577350     0.000000     0.000000    -0.000000
    6    -1.000000   120.000000     0.577350     0.577350     0.577350     0.000000     0.000000    -0.000000
    7     1.000000    90.000000     0.000000     0.000000    -1.000000     0.000000     0.000000    -0.000000
    8    -1.000000    90.000000     0.000000     0.000000    -1.000000     0.000000     0.000000    -0.000000
    9     1.000000   180.000000     0.000000    -0.707107    -0.707107     0.000000     0.000000    -0.000000
   10    -1.000000   180.000000     0.000000    -0.707107    -0.707107     0.000000     0.000000    -0.000000
   11     1.000000    90.000000     0.000000     1.000000     0.000000     0.000000     0.000000    -0.000000
   12    -1.000000    90.000000     0.000000     1.000000     0.000000     0.000000     0.000000    -0.000000
   13     1.000000   180.000000    -0.000000    -0.000000     1.000000     0.000000     0.000000    -0.000000
   14    -1.000000   180.000000    -0.000000    -0.000000     1.000000     0.000000     0.000000    -0.000000
   15     1.000000   120.000000    -0.577350     0.577350     0.577350     0.000000     0.000000    -0.000000
   16    -1.000000   120.000000    -0.577350     0.577350     0.577350     0.000000     0.000000    -0.000000
   17     1.000000   120.000000    -0.577350     0.577350    -0.577350     0.000000     0.000000    -0.000000
   18    -1.000000   120.000000    -0.577350     0.577350    -0.577350     0.000000     0.000000    -0.000000
   19     1.000000    90.000000    -0.000000    -0.000000     1.000000     0.000000     0.000000    -0.000000
   20    -1.000000    90.000000    -0.000000    -0.000000     1.000000     0.000000     0.000000    -0.000000
   21     1.000000    90.000000    -1.000000     0.000000    -0.000000     0.000000     0.000000    -0.000000
   22    -1.000000    90.000000    -1.000000     0.000000    -0.000000     0.000000     0.000000    -0.000000
   23     1.000000   180.000000    -0.707107     0.000000    -0.707107     0.000000     0.000000    -0.000000
   24    -1.000000   180.000000    -0.707107     0.000000    -0.707107     0.000000     0.000000    -0.000000
   25     1.000000   120.000000     0.577350    -0.577350     0.577350     0.000000     0.000000    -0.000000
   26    -1.000000   120.000000     0.577350    -0.577350     0.577350     0.000000     0.000000    -0.000000
   27     1.000000   120.000000    -0.577350    -0.577350     0.577350     0.000000     0.000000    -0.000000
   28    -1.000000   120.000000    -0.577350    -0.577350     0.577350     0.000000     0.000000    -0.000000
   29     1.000000   180.000000     1.000000    -0.000000     0.000000     0.000000     0.000000    -0.000000
   30    -1.000000   180.000000     1.000000    -0.000000     0.000000     0.000000     0.000000    -0.000000
   31     1.000000    90.000000    -0.000000    -1.000000     0.000000     0.000000     0.000000    -0.000000
   32    -1.000000    90.000000    -0.000000    -1.000000     0.000000     0.000000     0.000000    -0.000000
   33     1.000000   180.000000     0.707107     0.707107     0.000000     0.000000     0.000000    -0.000000
   34    -1.000000   180.000000     0.707107     0.707107     0.000000     0.000000     0.000000    -0.000000
   35     1.000000    90.000000     1.000000    -0.000000    -0.000000     0.000000     0.000000    -0.000000
   36    -1.000000    90.000000     1.000000    -0.000000    -0.000000     0.000000     0.000000    -0.000000
   37     1.000000   120.000000     0.577350    -0.577350    -0.577350     0.000000     0.000000    -0.000000
   38    -1.000000   120.000000     0.577350    -0.577350    -0.577350     0.000000     0.000000    -0.000000
   39     1.000000   180.000000     0.000000     1.000000     0.000000     0.000000     0.000000    -0.000000
   40    -1.000000   180.000000     0.000000     1.000000     0.000000     0.000000     0.000000    -0.000000
   41     1.000000   120.000000     0.577350     0.577350    -0.577350     0.000000     0.000000    -0.000000
   42    -1.000000   120.000000     0.577350     0.577350    -0.577350     0.000000     0.000000    -0.000000
   43     1.000000   180.000000    -0.000000    -0.707107     0.707107     0.000000     0.000000    -0.000000
   44    -1.000000   180.000000    -0.000000    -0.707107     0.707107     0.000000     0.000000    -0.000000
   45     1.000000   180.000000     0.707107    -0.707107     0.000000     0.000000     0.000000    -0.000000
   46    -1.000000   180.000000     0.707107    -0.707107     0.000000     0.000000     0.000000    -0.000000
   47     1.000000   180.000000     0.707107    -0.000000    -0.707107     0.000000     0.000000    -0.000000
   48    -1.000000   180.000000     0.707107    -0.000000    -0.707107     0.000000     0.000000    -0.000000
 
 Subroutine IBZKPT returns following result:
 ===========================================
 
 Found     10 irreducible k-points:
 
 Following reciprocal coordinates:
            Coordinates               Weight
  0.000000  0.000000  0.000000      1.000000
  0.250000  0.000000  0.000000      6.000000
  0.500000  0.000000  0.000000      3.000000
  0.250000  0.250000  0.000000     12.000000
  0.500000  0.250000  0.000000     12.000000
  0.500000  0.500000  0.000000      3.000000
  0.250000  0.250000  0.250000      8.000000
  0.500000  0.250000  0.250000     12.000000
  0.500000  0.500000  0.250000      6.000000
  0.500000  0.500000  0.500000      1.000000
 
 Following cartesian coordinates:
            Coordinates               Weight
  0.000000  0.000000  0.000000      1.000000
  0.049397  0.000000  0.000000      6.000000
  0.098794  0.000000  0.000000      3.000000
  0.049397  0.049397  0.000000     12.000000
  0.098794  0.049397  0.000000     12.000000
  0.098794  0.098794  0.000000      3.000000
  0.049397  0.049397  0.049397      8.000000
  0.098794  0.049397  0.049397     12.000000
  0.098794  0.098794  0.049397      6.000000
  0.098794  0.098794  0.098794      1.000000
 


--------------------------------------------------------------------------------------------------------




 Dimension of arrays:
   k-points           NKPTS =     10   k-points in BZ     NKDIM =     10   number of bands    NBANDS=     28
   number of dos      NEDOS =    301   number of ions     NIONS =      8
   non local maximal  LDIM  =      4   non local SUM 2l+1 LMDIM =      8
   total plane-waves  NPLWV = 110592
   max r-space proj   IRMAX =      1   max aug-charges    IRDMAX=  24722
   dimension x,y,z NGX =    48 NGY =   48 NGZ =   48
   dimension x,y,z NGXF=    96 NGYF=   96 NGZF=   96
   support grid    NGXF=    96 NGYF=   96 NGZF=   96
   ions per type =               4   4
   NGX,Y,Z   is equivalent  to a cutoff of  15.77, 15.77, 15.77 a.u.
   NGXF,Y,Z  is equivalent  to a cutoff of  31.53, 31.53, 31.53 a.u.

 SYSTEM =  unknown system                          
 POSCAR =  Li4 Cl4                                 

 Startparameter for this run:
   NWRITE =      2    write-flag & timer
   PREC   = accura    normal or accurate (medium, high low for compatibility)
   ISTART =      0    job   : 0-new  1-cont  2-samecut
   ICHARG =      2    charge: 1-file 2-atom 10-const
   ISPIN  =      1    spin polarized calculation?
   LNONCOLLINEAR =      F non collinear calculations
   LSORBIT =      F    spin-orbit coupling
   INIWAV =      1    electr: 0-lowe 1-rand  2-diag
   LASPH  =      T    aspherical Exc in radial PAW
   METAGGA=      F    non-selfconsistent MetaGGA calc.

 Electronic Relaxation 1
   ENCUT  =  700.0 eV  51.45 Ry    7.17 a.u.  10.92 10.92 10.92*2*pi/ulx,y,z
   ENINI  =  700.0     initial cutoff
   ENAUG  = 1360.0 eV  augmentation charge cutoff
   NELM   =    200;   NELMIN=  2; NELMDL= -5     # of ELM steps 
   EDIFF  = 0.1E-06   stopping-criterion for ELM
   LREAL  =      F    real-space projection
   NLSPLINE    = F    spline interpolate recip. space projectors
   LCOMPAT=      F    compatible to vasp.4.4
   GGA_COMPAT  = T    GGA compatible to vasp.4.4-vasp.4.6
   LMAXPAW     = -100 max onsite density
   LMAXMIX     =    2 max onsite mixed and CHGCAR
   VOSKOWN=      0    Vosko Wilk Nusair interpolation
   ROPT   =    0.00000   0.00000
 Ionic relaxation
   EDIFFG = 0.1E-05   stopping-criterion for IOM
   NSW    =      0    number of steps for IOM
   NBLOCK =      1;   KBLOCK =      1    inner block; outer block 
   IBRION =     -1    ionic relax: 0-MD 1-quasi-New 2-CG
   NFREE  =      0    steps in history (QN), initial steepest desc. (CG)
   ISIF   =      2    stress and relaxation
   IWAVPR =     10    prediction:  0-non 1-charg 2-wave 3-comb
   ISYM   =      2    0-nonsym 1-usesym 2-fastsym
   LCORR  =      T    Harris-Foulkes like correction to forces

   POTIM  = 0.5000    time-step for ionic-motion
   TEIN   =    0.0    initial temperature
   TEBEG  =    0.0;   TEEND  =   0.0 temperature during run
   SMASS  =  -3.00    Nose mass-parameter (am)
   estimated Nose-frequenzy (Omega)   =  0.10E-29 period in steps =****** mass=  -0.585E-27a.u.
   SCALEE = 1.0000    scale energy and forces
   NPACO  =    256;   APACO  = 16.0  distance and # of slots for P.C.
   PSTRESS=    0.0 pullay stress

  Mass of Ions in am
   POMASS =   7.01 35.45
  Ionic Valenz
   ZVAL   =   3.00  7.00
  Atomic Wigner-Seitz radii
   RWIGS  =  -1.00 -1.00
  virtual crystal weights 
   VCA    =   1.00  1.00
   NELECT =      40.0000    total number of electrons
   NUPDOWN=      -1.0000    fix difference up-down

 DOS related values:
   EMIN   =  10.00;   EMAX   =-10.00  energy-range for DOS
   EFERMI =   0.00
   ISMEAR =     0;   SIGMA  =   0.05  broadening in eV -4-tet -1-fermi 0-gaus

 Electronic relaxation 2 (details)
   IALGO  =     38    algorithm
   LDIAG  =      T    sub-space diagonalisation (order eigenvalues)
   LSUBROT=      F    optimize rotation matrix (better conditioning)
   TURBO    =      0    0=normal 1=particle mesh
   IRESTART =      0    0=no restart 2=restart with 2 vectors
   NREBOOT  =      0    no. of reboots
   NMIN     =      0    reboot dimension
   EREF     =   0.00    reference energy to select bands
   IMIX   =      4    mixing-type and parameters
     AMIX     =   0.40;   BMIX     =  1.00
     AMIX_MAG =   1.60;   BMIX_MAG =  1.00
     AMIN     =   0.10
     WC   =   100.;   INIMIX=   1;  MIXPRE=   1;  MAXMIX= -45

 Intra band minimization:
   WEIMIN = 0.0000     energy-eigenvalue tresh-hold
   EBREAK =  0.89E-09  absolut break condition
   DEPER  =   0.30     relativ break condition  

   TIME   =   0.40     timestep for ELM

  volume/ion in A,a.u.               =      16.20       109.35
  Fermi-wavevector in a.u.,A,eV,Ry     =   1.106259  2.090527 16.650934  1.223809
  Thomas-Fermi vector in A             =   2.242758

 Write flags
   LWAVE        =      F    write WAVECAR
   LDOWNSAMPLE  =      F    k-point downsampling of WAVECAR
   LCHARG       =      T    write CHGCAR
   LVTOT        =      T    write LOCPOT, total local potential
   LVHAR        =      F    write LOCPOT, Hartree potential only
   LELF         =      F    write electronic localiz. function (ELF)
   LORBIT       =     11    0 simple, 1 ext, 2 COOP (PROOUT), +10 PAW based schemes


 Dipole corrections
   LMONO  =      F    monopole corrections only (constant potential shift)
   LDIPOL =      F    correct potential (dipole corrections)
   IDIPOL =      0    1-x, 2-y, 3-z, 4-all directions 
   EPSILON=  1.0000000 bulk dielectric constant

 Exchange correlation treatment:
   GGA     =    PS    GGA type
   LEXCH   =    14    internal setting for exchange type
   VOSKOWN=      0    Vosko Wilk Nusair interpolation
   LHFCALC =     F    Hartree Fock is set to
   LHFONE  =     F    Hartree Fock one center treatment
   AEXX    =    0.0000 exact exchange contribution

 Linear response parameters
   LEPSILON=     F    determine dielectric tensor
   LRPA    =     F    only Hartree local field effects (RPA)
   LNABLA  =     F    use nabla operator in PAW spheres
   LVEL    =     F    velocity operator in full k-point grid
   LINTERFAST=   F  fast interpolation
   KINTER  =     0    interpolate to denser k-point grid
   CSHIFT  =0.1000    complex shift for real part using Kramers Kronig
   OMEGAMAX=  -1.0    maximum frequency
   DEG_THRESHOLD= 0.2000000E-02 threshold for treating states as degnerate
   RTIME   =   -0.100 relaxation time in fs
  (WPLASMAI=    0.000 imaginary part of plasma frequency in eV, 0.658/RTIME)
   DFIELD  = 0.0000000 0.0000000 0.0000000 field for delta impulse in time

 Orbital magnetization related:
   ORBITALMAG=     F  switch on orbital magnetization
   LCHIMAG   =     F  perturbation theory with respect to B field
   DQ        =  0.001000  dq finite difference perturbation B field
   LLRAUG    =     F  two centre corrections for induced B field



--------------------------------------------------------------------------------------------------------


 Static calculation
 charge density and potential will be updated during run
 non-spin polarized calculation
 Variant of blocked Davidson
 Davidson routine will perform the subspace rotation
 perform sub-space diagonalisation
    after iterative eigenvector-optimisation
 modified Broyden-mixing scheme, WC =      100.0
 initial mixing is a Kerker type mixing with AMIX =  0.4000 and BMIX =      1.0000
 Hartree-type preconditioning will be used
 using additional bands            8
 reciprocal scheme for non local part
 use partial core corrections
 calculate Harris-corrections to forces   (improved forces if not selfconsistent)
 use gradient corrections 
 use of overlap-Matrix (Vanderbilt PP)
 Gauss-broadening in eV      SIGMA  =   0.05


--------------------------------------------------------------------------------------------------------


  energy-cutoff  :      700.00
  volume of cell :      129.63
      direct lattice vectors                 reciprocal lattice vectors
     5.061019145 -0.000000000  0.000000000     0.197588662 -0.000000000 -0.000000000
     0.000000000  5.061019145  0.000000000     0.000000000  0.197588662  0.000000000
     0.000000000 -0.000000000  5.061019145    -0.000000000 -0.000000000  0.197588662

  length of vectors
     5.061019145  5.061019145  5.061019145     0.197588662  0.197588662  0.197588662



 k-points in units of 2pi/SCALE and weight: pymatgen with grid density = 980 / numbe
   0.00000000  0.00000000  0.00000000       0.016
   0.04939717  0.00000000  0.00000000       0.094
   0.09879433  0.00000000  0.00000000       0.047
   0.04939717  0.04939717  0.00000000       0.188
   0.09879433  0.04939717  0.00000000       0.188
   0.09879433  0.09879433  0.00000000       0.047
   0.04939717  0.04939717  0.04939717       0.125
   0.09879433  0.04939717  0.04939717       0.188
   0.09879433  0.09879433  0.04939717       0.094
   0.09879433  0.09879433  0.09879433       0.016

 k-points in reciprocal lattice and weights: pymatgen with grid density = 980 / numbe
   0.00000000  0.00000000  0.00000000       0.016
   0.25000000  0.00000000  0.00000000       0.094
   0.50000000  0.00000000  0.00000000       0.047
   0.25000000  0.25000000  0.00000000       0.188
   0.50000000  0.25000000  0.00000000       0.188
   0.50000000  0.50000000  0.00000000       0.047
   0.25000000  0.25000000  0.25000000       0.125
   0.50000000  0.25000000  0.25000000       0.188
   0.50000000  0.50000000  0.25000000       0.094
   0.50000000  0.50000000  0.50000000       0.016

 position of ions in fractional coordinates (direct lattice) 
   0.00000000  0.00000000  0.00000000
   0.00000000  0.50000000  0.50000000
   0.50000000  0.00000000  0.50000000
   0.50000000  0.50000000  0.00000000
   0.50000000  0.00000000  0.00000000
   0.50000000  0.50000000  0.50000000
   0.00000000  0.00000000  0.50000000
   0.00000000  0.50000000  0.00000000

 position of ions in cartesian coordinates  (Angst):
   0.00000000  0.00000000  0.00000000
   0.00000000  2.53050957  2.53050957
   2.53050957  0.00000000  2.53050957
   2.53050957  2.53050957  0.00000000
   2.53050957  0.00000000  0.00000000
   2.53050957  2.53050957  2.53050957
   0.00000000  0.00000000  2.53050957
   0.00000000  2.53050957  0.00000000



--------------------------------------------------------------------------------------------------------


 k-point  1 :   0.0000 0.0000 0.0000  plane waves:    5449
 k-point  2 :   0.2500 0.0000 0.0000  plane waves:    5454
 k-point  3 :   0.5000 0.0000 0.0000  plane waves:    5406
 k-point  4 :   0.2500 0.2500 0.0000  plane waves:    5441
 k-point  5 :   0.5000 0.2500 0.0000  plane waves:    5432
 k-point  6 :   0.5000 0.5000 0.0000  plane waves:    5440
 k-point  7 :   0.2500 0.2500 0.2500  plane waves:    5479
 k-point  8 :   0.5000 0.2500 0.2500  plane waves:    5456
 k-point  9 :   0.5000 0.5000 0.2500  plane waves:    5476
 k-point 10 :   0.5000 0.5000 0.5000  plane waves:    5520

 maximum and minimum number of plane-waves per node :       266      228

 maximum number of plane-waves:      5520
 maximum index in each direction: 
   IXMAX=   10   IYMAX=   10   IZMAX=   10
   IXMIN=  -11   IYMIN=  -11   IZMIN=  -11


 parallel 3D FFT for wavefunctions:
    minimum data exchange during FFTs selected (reduces bandwidth)
 parallel 3D FFT for charge:
    minimum data exchange during FFTs selected (reduces bandwidth)


 total amount of memory used by VASP MPI-rank0    32753. kBytes
=======================================================================

   base      :      30000. kBytes
   nonl-proj :        354. kBytes
   fftplans  :        779. kBytes
   grid      :       1326. kBytes
   one-center:          3. kBytes
   wavefun   :        291. kBytes

     INWAV:  cpu time    0.0000: real time    0.0000
 Broyden mixing: mesh for mixing (old mesh)
   NGX = 21   NGY = 21   NGZ = 21
  (NGX  = 96   NGY  = 96   NGZ  = 96)
  gives a total of   9261 points

 initial charge density was supplied:
 charge density of overlapping atoms calculated
 number of electron      40.0000000 magnetization 
 keeping initial charge density in first step


--------------------------------------------------------------------------------------------------------


 Maximum index for augmentation-charges         1790 (set IRDMAX)


--------------------------------------------------------------------------------------------------------


 First call to EWALD:  gamma=   0.350
 Maximum number of real-space cells 3x 3x 3
 Maximum number of reciprocal cells 3x 3x 3

    FEWALD:  cpu time    0.0009: real time    0.0009


--------------------------------------- Iteration      1(   1)  ---------------------------------------


    POTLOK:  cpu time    0.0319: real time    0.0374
    SETDIJ:  cpu time    0.0934: real time    0.0938
     EDDAV:  cpu time    0.2347: real time    0.2375
       DOS:  cpu time    0.0003: real time    0.0004
    --------------------------------------------
      LOOP:  cpu time    0.3603: real time    0.3691

 eigenvalue-minimisations  :   560
 total energy-change (2. order) : 0.3311403E+03  (-0.2045253E+04)
 number of electron      40.0000000 magnetization 
 augmentation part       40.0000000 magnetization 

 Free energy of the ion-electron system (eV)
  ---------------------------------------------------
  alpha Z        PSCENC =        46.71013134
  Ewald energy   TEWEN  =     -1773.66690281
  -Hartree energ DENC   =      -360.20951552
  -exchange      EXHF   =         0.00000000
  -V(xc)+E(xc)   XCENC  =       131.94120578
  PAW double counting   =      1619.33940462    -1679.48808132
  entropy T*S    EENTRO =        -0.00460926
  eigenvalues    EBANDS =       -92.54110828
  atomic energy  EATOM  =      2439.05974756
  Solvation  Ediel_sol  =         0.00000000
  ---------------------------------------------------
  free energy    TOTEN  =       331.14027212 eV

  energy without entropy =      331.14488138  energy(sigma->0) =      331.14257675


--------------------------------------------------------------------------------------------------------




--------------------------------------- Iteration      1(   2)  ---------------------------------------


     EDDAV:  cpu time    0.2447: real time    0.2492
       DOS:  cpu time    0.0002: real time    0.0002
    --------------------------------------------
      LOOP:  cpu time    0.2449: real time    0.2494

 eigenvalue-minimisations  :   724
 total energy-change (2. order) :-0.3273653E+03  (-0.3152305E+03)
 number of electron      40.0000000 magnetization 
 augmentation part       40.0000000 magnetization 

 Free energy of the ion-electron system (eV)
  ---------------------------------------------------
  alpha Z        PSCENC =        46.71013134
  Ewald energy   TEWEN  =     -1773.66690281
  -Hartree energ DENC   =      -360.20951552
  -exchange      EXHF   =         0.00000000
  -V(xc)+E(xc)   XCENC  =       131.94120578
  PAW double counting   =      1619.33940462    -1679.48808132
  entropy T*S    EENTRO =        -0.00000000
  eigenvalues    EBANDS =      -419.91098740
  atomic energy  EATOM  =      2439.05974756
  Solvation  Ediel_sol  =         0.00000000
  ---------------------------------------------------
  free energy    TOTEN  =         3.77500226 eV

  energy without entropy =        3.77500226  energy(sigma->0) =        3.77500226


--------------------------------------------------------------------------------------------------------




--------------------------------------- Iteration      1(   3)  ---------------------------------------


     EDDAV:  cpu time    0.2975: real time    0.2976
       DOS:  cpu time    0.0002: real time    0.0002
    --------------------------------------------
      LOOP:  cpu time    0.2977: real time    0.2978

 eigenvalue-minimisations  :   828
 total energy-change (2. order) :-0.3085060E+02  (-0.3072862E+02)
 number of electron      40.0000000 magnetization 
 augmentation part       40.0000000 magnetization 

 Free energy of the ion-electron system (eV)
  ---------------------------------------------------
  alpha Z        PSCENC =        46.71013134
  Ewald energy   TEWEN  =     -1773.66690281
  -Hartree energ DENC   =      -360.20951552
  -exchange      EXHF   =         0.00000000
  -V(xc)+E(xc)   XCENC  =       131.94120578
  PAW double counting   =      1619.33940462    -1679.48808132
  entropy T*S    EENTRO =        -0.00000000
  eigenvalues    EBANDS =      -450.76158616
  atomic energy  EATOM  =      2439.05974756
  Solvation  Ediel_sol  =         0.00000000
  ---------------------------------------------------
  free energy    TOTEN  =       -27.07559650 eV

  energy without entropy =      -27.07559650  energy(sigma->0) =      -27.07559650


--------------------------------------------------------------------------------------------------------




--------------------------------------- Iteration      1(   4)  ---------------------------------------


     EDDAV:  cpu time    0.3059: real time    0.3087
       DOS:  cpu time    0.0002: real time    0.0002
    --------------------------------------------
      LOOP:  cpu time    0.3061: real time    0.3089

 eigenvalue-minimisations  :   964
 total energy-change (2. order) :-0.3501789E+01  (-0.3489964E+01)
 number of electron      40.0000000 magnetization 
 augmentation part       40.0000000 magnetization 

 Free energy of the ion-electron system (eV)
  ---------------------------------------------------
  alpha Z        PSCENC =        46.71013134
  Ewald energy   TEWEN  =     -1773.66690281
  -Hartree energ DENC   =      -360.20951552
  -exchange      EXHF   =         0.00000000
  -V(xc)+E(xc)   XCENC  =       131.94120578
  PAW double counting   =      1619.33940462    -1679.48808132
  entropy T*S    EENTRO =        -0.00000000
  eigenvalues    EBANDS =      -454.26337553
  atomic energy  EATOM  =      2439.05974756
  Solvation  Ediel_sol  =         0.00000000
  ---------------------------------------------------
  free energy    TOTEN  =       -30.57738587 eV

  energy without entropy =      -30.57738587  energy(sigma->0) =      -30.57738587


--------------------------------------------------------------------------------------------------------




--------------------------------------- Iteration      1(   5)  ---------------------------------------


     EDDAV:  cpu time    0.2566: real time    0.2595
       DOS:  cpu time    0.0002: real time    0.0002
    CHARGE:  cpu time    0.2070: real time    0.2076
    MIXING:  cpu time    0.0023: real time    0.0027
    --------------------------------------------
      LOOP:  cpu time    0.4660: real time    0.4700

 eigenvalue-minimisations  :   808
 total energy-change (2. order) :-0.1820878E+00  (-0.1820652E+00)
 number of electron      40.0000015 magnetization 
 augmentation part        0.2484558 magnetization 

 Broyden mixing:
  rms(total) = 0.47230E+00    rms(broyden)= 0.47189E+00
  rms(prec ) = 0.71186E+00
  weight for this iteration     100.00

 Free energy of the ion-electron system (eV)
  ---------------------------------------------------
  alpha Z        PSCENC =        46.71013134
  Ewald energy   TEWEN  =     -1773.66690281
  -Hartree energ DENC   =      -360.20951552
  -exchange      EXHF   =         0.00000000
  -V(xc)+E(xc)   XCENC  =       131.94120578
  PAW double counting   =      1619.33940462    -1679.48808132
  entropy T*S    EENTRO =        -0.00000000
  eigenvalues    EBANDS =      -454.44546333
  atomic energy  EATOM  =      2439.05974756
  Solvation  Ediel_sol  =         0.00000000
  ---------------------------------------------------
  free energy    TOTEN  =       -30.75947367 eV

  energy without entropy =      -30.75947367  energy(sigma->0) =      -30.75947367


--------------------------------------------------------------------------------------------------------




--------------------------------------- Iteration      1(   6)  ---------------------------------------


    POTLOK:  cpu time    0.0181: real time    0.0182
    SETDIJ:  cpu time    0.0925: real time    0.0925
     EDDAV:  cpu time    0.2458: real time    0.2459
       DOS:  cpu time    0.0002: real time    0.0002
    CHARGE:  cpu time    0.1951: real time    0.1951
    MIXING:  cpu time    0.0004: real time    0.0004
    --------------------------------------------
      LOOP:  cpu time    0.5522: real time    0.5524

 eigenvalue-minimisations  :   748
 total energy-change (2. order) : 0.2078446E+00  (-0.4861190E-01)
 number of electron      40.0000014 magnetization 
 augmentation part        0.2648861 magnetization 

 Broyden mixing:
  rms(total) = 0.33121E+00    rms(broyden)= 0.33119E+00
  rms(prec ) = 0.41100E+00
  weight for this iteration     100.00

 eigenvalues of (default mixing * dielectric matrix)
  average eigenvalue GAMMA=   2.1196
  2.1196

 Free energy of the ion-electron system (eV)
  ---------------------------------------------------
  alpha Z        PSCENC =        46.71013134
  Ewald energy   TEWEN  =     -1773.66690281
  -Hartree energ DENC   =      -366.14526765
  -exchange      EXHF   =         0.00000000
  -V(xc)+E(xc)   XCENC  =       132.44593124
  PAW double counting   =      1798.44836135    -1859.56476473
  entropy T*S    EENTRO =        -0.00000000
  eigenvalues    EBANDS =      -447.83886535
  atomic energy  EATOM  =      2439.05974756
  Solvation  Ediel_sol  =         0.00000000
  ---------------------------------------------------
  free energy    TOTEN  =       -30.55162904 eV

  energy without entropy =      -30.55162904  energy(sigma->0) =      -30.55162904


--------------------------------------------------------------------------------------------------------




--------------------------------------- Iteration      1(   7)  ---------------------------------------


    POTLOK:  cpu time    0.0179: real time    0.0179
    SETDIJ:  cpu time    0.0924: real time    0.0924
     EDDAV:  cpu time    0.2773: real time    0.2775
       DOS:  cpu time    0.0002: real time    0.0002
    CHARGE:  cpu time    0.1942: real time    0.1942
    MIXING:  cpu time    0.0004: real time    0.0004
    --------------------------------------------
      LOOP:  cpu time    0.5824: real time    0.5826

 eigenvalue-minimisations  :   876
 total energy-change (2. order) : 0.3922447E-02  (-0.2307451E-01)
 number of electron      40.0000014 magnetization 
 augmentation part        0.2502435 magnetization 

 Broyden mixing:
  rms(total) = 0.14300E+00    rms(broyden)= 0.14300E+00
  rms(prec ) = 0.16076E+00
  weight for this iteration     100.00

 eigenvalues of (default mixing * dielectric matrix)
  average eigenvalue GAMMA=   1.9541
  1.5554  2.3527

 Free energy of the ion-electron system (eV)
  ---------------------------------------------------
  alpha Z        PSCENC =        46.71013134
  Ewald energy   TEWEN  =     -1773.66690281
  -Hartree energ DENC   =      -368.99737111
  -exchange      EXHF   =         0.00000000
  -V(xc)+E(xc)   XCENC  =       132.75152811
  PAW double counting   =      2045.61417333    -2107.71511946
  entropy T*S    EENTRO =        -0.00000000
  eigenvalues    EBANDS =      -444.30389355
  atomic energy  EATOM  =      2439.05974756
  Solvation  Ediel_sol  =         0.00000000
  ---------------------------------------------------
  free energy    TOTEN  =       -30.54770660 eV

  energy without entropy =      -30.54770660  energy(sigma->0) =      -30.54770660


--------------------------------------------------------------------------------------------------------




--------------------------------------- Iteration      1(   8)  ---------------------------------------


    POTLOK:  cpu time    0.0178: real time    0.0178
    SETDIJ:  cpu time    0.0921: real time    0.0921
     EDDAV:  cpu time    0.2553: real time    0.2553
       DOS:  cpu time    0.0002: real time    0.0002
    CHARGE:  cpu time    0.1947: real time    0.1948
    MIXING:  cpu time    0.0004: real time    0.0004
    --------------------------------------------
      LOOP:  cpu time    0.5605: real time    0.5606

 eigenvalue-minimisations  :   804
 total energy-change (2. order) :-0.6010693E-02  (-0.2643997E-02)
 number of electron      40.0000014 magnetization 
 augmentation part        0.2343687 magnetization 

 Broyden mixing:
  rms(total) = 0.14206E-01    rms(broyden)= 0.14195E-01
  rms(prec ) = 0.22479E-01
  weight for this iteration     100.00

 eigenvalues of (default mixing * dielectric matrix)
  average eigenvalue GAMMA=   1.6306
  2.3193  1.2862  1.2862

 Free energy of the ion-electron system (eV)
  ---------------------------------------------------
  alpha Z        PSCENC =        46.71013134
  Ewald energy   TEWEN  =     -1773.66690281
  -Hartree energ DENC   =      -367.79218464
  -exchange      EXHF   =         0.00000000
  -V(xc)+E(xc)   XCENC  =       132.72006429
  PAW double counting   =      2176.87807609    -2239.24919784
  entropy T*S    EENTRO =        -0.00000000
  eigenvalues    EBANDS =      -445.21345127
  atomic energy  EATOM  =      2439.05974756
  Solvation  Ediel_sol  =         0.00000000
  ---------------------------------------------------
  free energy    TOTEN  =       -30.55371729 eV

  energy without entropy =      -30.55371729  energy(sigma->0) =      -30.55371729


--------------------------------------------------------------------------------------------------------




--------------------------------------- Iteration      1(   9)  ---------------------------------------


    POTLOK:  cpu time    0.0177: real time    0.0178
    SETDIJ:  cpu time    0.0924: real time    0.0926
     EDDAV:  cpu time    0.2569: real time    0.2569
       DOS:  cpu time    0.0002: real time    0.0002
    CHARGE:  cpu time    0.1937: real time    0.1937
    MIXING:  cpu time    0.0004: real time    0.0004
    --------------------------------------------
      LOOP:  cpu time    0.5613: real time    0.5616

 eigenvalue-minimisations  :   816
 total energy-change (2. order) :-0.1459988E-03  (-0.1308822E-03)
 number of electron      40.0000014 magnetization 
 augmentation part        0.2345191 magnetization 

 Broyden mixing:
  rms(total) = 0.66638E-02    rms(broyden)= 0.66618E-02
  rms(prec ) = 0.98975E-02
  weight for this iteration     100.00

 eigenvalues of (default mixing * dielectric matrix)
  average eigenvalue GAMMA=   1.8867
  1.1142  1.2949  2.5688  2.5688

 Free energy of the ion-electron system (eV)
  ---------------------------------------------------
  alpha Z        PSCENC =        46.71013134
  Ewald energy   TEWEN  =     -1773.66690281
  -Hartree energ DENC   =      -368.21306956
  -exchange      EXHF   =         0.00000000
  -V(xc)+E(xc)   XCENC  =       132.76035865
  PAW double counting   =      2173.59960577    -2236.02341214
  entropy T*S    EENTRO =        -0.00000000
  eigenvalues    EBANDS =      -444.78032211
  atomic energy  EATOM  =      2439.05974756
  Solvation  Ediel_sol  =         0.00000000
  ---------------------------------------------------
  free energy    TOTEN  =       -30.55386329 eV

  energy without entropy =      -30.55386329  energy(sigma->0) =      -30.55386329


--------------------------------------------------------------------------------------------------------




--------------------------------------- Iteration      1(  10)  ---------------------------------------


    POTLOK:  cpu time    0.0176: real time    0.0176
    SETDIJ:  cpu time    0.0926: real time    0.0927
     EDDAV:  cpu time    0.2718: real time    0.2718
       DOS:  cpu time    0.0002: real time    0.0003
    CHARGE:  cpu time    0.1942: real time    0.1943
    MIXING:  cpu time    0.0005: real time    0.0005
    --------------------------------------------
      LOOP:  cpu time    0.5769: real time    0.5771

 eigenvalue-minimisations  :   740
 total energy-change (2. order) :-0.2038161E-03  (-0.2601453E-04)
 number of electron      40.0000014 magnetization 
 augmentation part        0.2345357 magnetization 

 Broyden mixing:
  rms(total) = 0.13950E-02    rms(broyden)= 0.13942E-02
  rms(prec ) = 0.16283E-02
  weight for this iteration     100.00

 eigenvalues of (default mixing * dielectric matrix)
  average eigenvalue GAMMA=   1.7347
  2.8543  2.3758  1.3096  1.1406  0.9931

 Free energy of the ion-electron system (eV)
  ---------------------------------------------------
  alpha Z        PSCENC =        46.71013134
  Ewald energy   TEWEN  =     -1773.66690281
  -Hartree energ DENC   =      -368.35945352
  -exchange      EXHF   =         0.00000000
  -V(xc)+E(xc)   XCENC  =       132.78353213
  PAW double counting   =      2168.33452173    -2230.79434626
  entropy T*S    EENTRO =        -0.00000000
  eigenvalues    EBANDS =      -444.62129728
  atomic energy  EATOM  =      2439.05974756
  Solvation  Ediel_sol  =         0.00000000
  ---------------------------------------------------
  free energy    TOTEN  =       -30.55406710 eV

  energy without entropy =      -30.55406710  energy(sigma->0) =      -30.55406710


--------------------------------------------------------------------------------------------------------




--------------------------------------- Iteration      1(  11)  ---------------------------------------


    POTLOK:  cpu time    0.0192: real time    0.0218
    SETDIJ:  cpu time    0.0924: real time    0.0925
     EDDAV:  cpu time    0.2557: real time    0.2557
       DOS:  cpu time    0.0002: real time    0.0002
    CHARGE:  cpu time    0.1937: real time    0.1938
    MIXING:  cpu time    0.0004: real time    0.0004
    --------------------------------------------
      LOOP:  cpu time    0.5617: real time    0.5645

 eigenvalue-minimisations  :   804
 total energy-change (2. order) :-0.1610286E-05  (-0.1204647E-05)
 number of electron      40.0000014 magnetization 
 augmentation part        0.2346530 magnetization 

 Broyden mixing:
  rms(total) = 0.41072E-03    rms(broyden)= 0.41064E-03
  rms(prec ) = 0.52777E-03
  weight for this iteration     100.00

 eigenvalues of (default mixing * dielectric matrix)
  average eigenvalue GAMMA=   2.0165
  3.2848  3.0291  2.3921  1.3406  1.0262  1.0262

 Free energy of the ion-electron system (eV)
  ---------------------------------------------------
  alpha Z        PSCENC =        46.71013134
  Ewald energy   TEWEN  =     -1773.66690281
  -Hartree energ DENC   =      -368.34599752
  -exchange      EXHF   =         0.00000000
  -V(xc)+E(xc)   XCENC  =       132.78263177
  PAW double counting   =      2169.54304461    -2231.99914333
  entropy T*S    EENTRO =        -0.00000000
  eigenvalues    EBANDS =      -444.63758034
  atomic energy  EATOM  =      2439.05974756
  Solvation  Ediel_sol  =         0.00000000
  ---------------------------------------------------
  free energy    TOTEN  =       -30.55406872 eV

  energy without entropy =      -30.55406872  energy(sigma->0) =      -30.55406872


--------------------------------------------------------------------------------------------------------




--------------------------------------- Iteration      1(  12)  ---------------------------------------


    POTLOK:  cpu time    0.0175: real time    0.0175
    SETDIJ:  cpu time    0.0927: real time    0.0927
     EDDAV:  cpu time    0.2519: real time    0.2519
       DOS:  cpu time    0.0002: real time    0.0003
    CHARGE:  cpu time    0.1935: real time    0.1937
    MIXING:  cpu time    0.0005: real time    0.0005
    --------------------------------------------
      LOOP:  cpu time    0.5563: real time    0.5566

 eigenvalue-minimisations  :   788
 total energy-change (2. order) : 0.3500190E-07  (-0.1015650E-06)
 number of electron      40.0000014 magnetization 
 augmentation part        0.2346194 magnetization 

 Broyden mixing:
  rms(total) = 0.16787E-03    rms(broyden)= 0.16787E-03
  rms(prec ) = 0.21871E-03
  weight for this iteration     100.00

 eigenvalues of (default mixing * dielectric matrix)
  average eigenvalue GAMMA=   1.7388
  2.9512  2.4536  2.4536  1.3374  1.0081  1.0081  0.9599

 Free energy of the ion-electron system (eV)
  ---------------------------------------------------
  alpha Z        PSCENC =        46.71013134
  Ewald energy   TEWEN  =     -1773.66690281
  -Hartree energ DENC   =      -368.34456406
  -exchange      EXHF   =         0.00000000
  -V(xc)+E(xc)   XCENC  =       132.78130283
  PAW double counting   =      2169.34426227    -2231.78520951
  entropy T*S    EENTRO =        -0.00000000
  eigenvalues    EBANDS =      -444.65283629
  atomic energy  EATOM  =      2439.05974756
  Solvation  Ediel_sol  =         0.00000000
  ---------------------------------------------------
  free energy    TOTEN  =       -30.55406868 eV

  energy without entropy =      -30.55406868  energy(sigma->0) =      -30.55406868


--------------------------------------------------------------------------------------------------------




--------------------------------------- Iteration      1(  13)  ---------------------------------------


    POTLOK:  cpu time    0.0174: real time    0.0175
    SETDIJ:  cpu time    0.0926: real time    0.0926
     EDDAV:  cpu time    0.2139: real time    0.2139
       DOS:  cpu time    0.0002: real time    0.0002
    --------------------------------------------
      LOOP:  cpu time    0.3241: real time    0.3243

 eigenvalue-minimisations  :   620
 total energy-change (2. order) : 0.5632955E-08  (-0.1474268E-07)
 number of electron      40.0000014 magnetization 
 augmentation part        0.2346194 magnetization 

 Free energy of the ion-electron system (eV)
  ---------------------------------------------------
  alpha Z        PSCENC =        46.71013134
  Ewald energy   TEWEN  =     -1773.66690281
  -Hartree energ DENC   =      -368.34804207
  -exchange      EXHF   =         0.00000000
  -V(xc)+E(xc)   XCENC  =       132.78198421
  PAW double counting   =      2169.36981383    -2231.81535526
  entropy T*S    EENTRO =        -0.00000000
  eigenvalues    EBANDS =      -444.64544547
  atomic energy  EATOM  =      2439.05974756
  Solvation  Ediel_sol  =         0.00000000
  ---------------------------------------------------
  free energy    TOTEN  =       -30.55406867 eV

  energy without entropy =      -30.55406867  energy(sigma->0) =      -30.55406867


--------------------------------------------------------------------------------------------------------




 average (electrostatic) potential at core
  the test charge radii are     0.7079  0.9406
  (the norm of the test charge is              1.0000)
       1 -61.2310       2 -61.2310       3 -61.2310       4 -61.2310       5 -92.5149
       6 -92.5149       7 -92.5149       8 -92.5149



 E-fermi :   1.2318     XC(G=0):  -9.0875     alpha+bet :-10.4239


 k-point     1 :       0.0000    0.0000    0.0000
  band No.  band energies     occupation 
      1     -41.8977      2.00000
      2     -41.8928      2.00000
      3     -41.8928      2.00000
      4     -41.8928      2.00000
      5     -12.6970      2.00000
      6     -11.7788      2.00000
      7     -11.7788      2.00000
      8     -11.7788      2.00000
      9      -2.3066      2.00000
     10      -2.3066      2.00000
     11      -2.3066      2.00000
     12      -0.3577      2.00000
     13      -0.3577      2.00000
     14      -0.3577      2.00000
     15      -0.3577      2.00000
     16      -0.3577      2.00000
     17      -0.3577      2.00000
     18       0.8444      2.00000
     19       0.8444      2.00000
     20       0.8444      2.00000
     21       7.2099      0.00000
     22       8.6918      0.00000
     23       8.6918      0.00000
     24       8.6918      0.00000
     25       8.8713      0.00000
     26       8.8713      0.00000
     27       8.8713      0.00000
     28      12.6879      0.00000

 k-point     2 :       0.2500    0.0000    0.0000
  band No.  band energies     occupation 
      1     -41.8970      2.00000
      2     -41.8935      2.00000
      3     -41.8928      2.00000
      4     -41.8928      2.00000
      5     -12.5845      2.00000
      6     -11.9402      2.00000
      7     -11.7840      2.00000
      8     -11.7840      2.00000
      9      -2.0828      2.00000
     10      -2.0828      2.00000
     11      -1.8618      2.00000
     12      -0.7300      2.00000
     13      -0.7300      2.00000
     14      -0.3334      2.00000
     15      -0.3334      2.00000
     16      -0.2027      2.00000
     17      -0.2027      2.00000
     18       0.3332      2.00000
     19       0.6433      2.00000
     20       0.6433      2.00000
     21       7.9474      0.00000
     22       8.9870      0.00000
     23       9.1913      0.00000
     24       9.1913      0.00000
     25       9.2040      0.00000
     26       9.6067      0.00000
     27       9.6067      0.00000
     28      11.6417      0.00000

 k-point     3 :       0.5000    0.0000    0.0000
  band No.  band energies     occupation 
      1     -41.8952      2.00000
      2     -41.8952      2.00000
      3     -41.8928      2.00000
      4     -41.8928      2.00000
      5     -12.2860      2.00000
      6     -12.2860      2.00000
      7     -11.7891      2.00000
      8     -11.7891      2.00000
      9      -1.4754      2.00000
     10      -1.4754      2.00000
     11      -1.4754      2.00000
     12      -1.4754      2.00000
     13      -0.7900      2.00000
     14      -0.7900      2.00000
     15      -0.3092      2.00000
     16      -0.3092      2.00000
     17       0.1976      2.00000
     18       0.1976      2.00000
     19       0.1976      2.00000
     20       0.1976      2.00000
     21       9.4905      0.00000
     22       9.4905      0.00000
     23      10.1769      0.00000
     24      10.1769      0.00000
     25      10.4587      0.00000
     26      10.5013      0.00000
     27      10.5499      0.00000
     28      10.5538      0.00000

 k-point     4 :       0.2500    0.2500    0.0000
  band No.  band energies     occupation 
      1     -41.8964      2.00000
      2     -41.8934      2.00000
      3     -41.8934      2.00000
      4     -41.8929      2.00000
      5     -12.4845      2.00000
      6     -11.9219      2.00000
      7     -11.9219      2.00000
      8     -11.8117      2.00000
      9      -1.8644      2.00000
     10      -1.7839      2.00000
     11      -1.7839      2.00000
     12      -1.0972      2.00000
     13      -0.5571      2.00000
     14      -0.5571      2.00000
     15      -0.2805      2.00000
     16      -0.0952      2.00000
     17      -0.0952      2.00000
     18      -0.0614      2.00000
     19       0.4075      2.00000
     20       0.8337      2.00000
     21       8.2583      0.00000
     22       8.8134      0.00000
     23       9.4412      0.00000
     24       9.4412      0.00000
     25       9.8528      0.00000
     26       9.8528      0.00000
     27      10.7730      0.00000
     28      11.2096      0.00000

 k-point     5 :       0.5000    0.2500    0.0000
  band No.  band energies     occupation 
      1     -41.8949      2.00000
      2     -41.8949      2.00000
      3     -41.8931      2.00000
      4     -41.8931      2.00000
      5     -12.2218      2.00000
      6     -12.2218      2.00000
      7     -11.8715      2.00000
      8     -11.8715      2.00000
      9      -1.5239      2.00000
     10      -1.5239      2.00000
     11      -1.2745      2.00000
     12      -1.2745      2.00000
     13      -1.0896      2.00000
     14      -1.0896      2.00000
     15      -0.1055      2.00000
     16      -0.1055      2.00000
     17       0.0489      2.00000
     18       0.0489      2.00000
     19       0.4756      2.00000
     20       0.4756      2.00000
     21       9.3264      0.00000
     22       9.3264      0.00000
     23       9.5307      0.00000
     24       9.5307      0.00000
     25      10.4690      0.00000
     26      10.4718      0.00000
     27      10.4951      0.00000
     28      10.4956      0.00000

 k-point     6 :       0.5000    0.5000    0.0000
  band No.  band energies     occupation 
      1     -41.8940      2.00000
      2     -41.8940      2.00000
      3     -41.8940      2.00000
      4     -41.8940      2.00000
      5     -12.0558      2.00000
      6     -12.0558      2.00000
      7     -12.0558      2.00000
      8     -12.0558      2.00000
      9      -1.4279      2.00000
     10      -1.4279      2.00000
     11      -1.4279      2.00000
     12      -1.4279      2.00000
     13      -0.7387      2.00000
     14      -0.7387      2.00000
     15      -0.7387      2.00000
     16      -0.7387      2.00000
     17       0.5356      2.00000
     18       0.5356      2.00000
     19       0.5356      2.00000
     20       0.5356      2.00000
     21       8.9436      0.00000
     22       8.9436      0.00000
     23       8.9436      0.00000
     24       8.9436      0.00000
     25      11.0018      0.00000
     26      11.0020      0.00000
     27      11.0032      0.00000
     28      11.0226      0.00000

 k-point     7 :       0.2500    0.2500    0.2500
  band No.  band energies     occupation 
      1     -41.8959      2.00000
      2     -41.8934      2.00000
      3     -41.8934      2.00000
      4     -41.8934      2.00000
      5     -12.3989      2.00000
      6     -11.9252      2.00000
      7     -11.9252      2.00000
      8     -11.9252      2.00000
      9      -1.8556      2.00000
     10      -1.8556      2.00000
     11      -1.8556      2.00000
     12      -0.8662      2.00000
     13      -0.5731      2.00000
     14      -0.5731      2.00000
     15      -0.5731      2.00000
     16       0.0627      2.00000
     17       0.0627      2.00000
     18       0.0627      2.00000
     19       0.6961      2.00000
     20       0.6961      2.00000
     21       8.0243      0.00000
     22       8.9093      0.00000
     23       8.9093      0.00000
     24       8.9093      0.00000
     25      10.4420      0.00000
     26      10.4420      0.00000
     27      10.4420      0.00000
     28      11.4831      0.00000

 k-point     8 :       0.5000    0.2500    0.2500
  band No.  band energies     occupation 
      1     -41.8946      2.00000
      2     -41.8946      2.00000
      3     -41.8934      2.00000
      4     -41.8934      2.00000
      5     -12.1757      2.00000
      6     -12.1757      2.00000
      7     -11.9284      2.00000
      8     -11.9284      2.00000
      9      -1.9163      2.00000
     10      -1.9163      2.00000
     11      -1.5288      2.00000
     12      -1.5288      2.00000
     13      -0.5892      2.00000
     14      -0.5892      2.00000
     15       0.2098      2.00000
     16       0.2098      2.00000
     17       0.3359      2.00000
     18       0.3359      2.00000
     19       0.3725      2.00000
     20       0.3725      2.00000
     21       8.4416      0.00000
     22       8.4416      0.00000
     23       8.9704      0.00000
     24       8.9704      0.00000
     25      10.1170      0.00000
     26      10.1170      0.00000
     27      10.3394      0.00000
     28      10.3394      0.00000

 k-point     9 :       0.5000    0.5000    0.2500
  band No.  band energies     occupation 
      1     -41.8940      2.00000
      2     -41.8940      2.00000
      3     -41.8940      2.00000
      4     -41.8940      2.00000
      5     -12.0574      2.00000
      6     -12.0574      2.00000
      7     -12.0574      2.00000
      8     -12.0574      2.00000
      9      -1.9361      2.00000
     10      -1.9361      2.00000
     11      -1.9361      2.00000
     12      -1.9361      2.00000
     13       0.0171      2.00000
     14       0.0171      2.00000
     15       0.0171      2.00000
     16       0.0171      2.00000
     17       0.5498      2.00000
     18       0.5498      2.00000
     19       0.5498      2.00000
     20       0.5498      2.00000
     21       8.1483      0.00000
     22       8.1483      0.00000
     23       8.1483      0.00000
     24       8.1483      0.00000
     25      10.4555      0.00000
     26      10.4617      0.00000
     27      10.4693      0.00000
     28      10.4878      0.00000

 k-point    10 :       0.5000    0.5000    0.5000
  band No.  band energies     occupation 
      1     -41.8940      2.00000
      2     -41.8940      2.00000
      3     -41.8940      2.00000
      4     -41.8940      2.00000
      5     -12.0590      2.00000
      6     -12.0590      2.00000
      7     -12.0590      2.00000
      8     -12.0590      2.00000
      9      -2.1996      2.00000
     10      -2.1996      2.00000
     11      -2.1996      2.00000
     12      -2.1996      2.00000
     13       0.5640      2.00000
     14       0.5640      2.00000
     15       0.5640      2.00000
     16       0.5640      2.00000
     17       0.5640      2.00000
     18       0.5640      2.00000
     19       0.5640      2.00000
     20       0.5640      2.00000
     21       7.4450      0.00000
     22       7.4450      0.00000
     23       7.4450      0.00000
     24       7.4450      0.00000
     25      10.2530      0.00000
     26      10.2530      0.00000
     27      10.2530      0.00000
     28      10.2530      0.00000


--------------------------------------------------------------------------------------------------------


 soft charge-density along one line, spin component           1
         0         1         2         3         4         5         6         7         8         9
 total charge-density along one line

 pseudopotential strength for first ion, spin component:           1
-38.491   3.373   0.000   0.000   0.000
  3.373  -9.845   0.000   0.000   0.000
  0.000   0.000   0.104  -0.000   0.000
  0.000   0.000  -0.000   0.104   0.000
  0.000   0.000   0.000   0.000   0.104
 total augmentation occupancy for first ion, spin component:           1
  2.003   0.018   0.000   0.000   0.000
  0.018   0.491   0.000   0.000  -0.000
  0.000   0.000   0.019   0.000   0.000
  0.000   0.000   0.000   0.019   0.000
  0.000  -0.000   0.000   0.000   0.019


------------------------ aborting loop because EDIFF is reached ----------------------------------------





 total charge     

# of ion       s       p       d       tot
------------------------------------------
    1        2.009   0.040   0.000   2.049
    2        2.009   0.040   0.000   2.049
    3        2.009   0.040   0.000   2.049
    4        2.009   0.040   0.000   2.049
    5        1.579   3.567   0.000   5.146
    6        1.579   3.567   0.000   5.146
    7        1.579   3.567   0.000   5.146
    8        1.579   3.567   0.000   5.146
--------------------------------------------------
tot         14.352  14.429   0.000  28.780

    CHARGE:  cpu time    0.2000: real time    0.2000
    FORLOC:  cpu time    0.0012: real time    0.0012
    FORNL :  cpu time    0.0262: real time    0.0262
    STRESS:  cpu time    0.1083: real time    0.1087
    FORCOR:  cpu time    0.0172: real time    0.0172
    FORHAR:  cpu time    0.0051: real time    0.0051
    MIXING:  cpu time    0.0004: real time    0.0004
    OFIELD:  cpu time    0.0000: real time    0.0000

  FORCE on cell =-STRESS in cart. coord.  units (eV):
  Direction    XX          YY          ZZ          XY          YZ          ZX
  --------------------------------------------------------------------------------------
  Alpha Z    46.71013    46.71013    46.71013
  Ewald    -591.22307  -591.22307  -591.22307     0.00000     0.00000     0.00000
  Hartree   122.78322   122.78322   122.78322    -0.00000    -0.00000    -0.00000
  E(xc)    -155.61189  -155.61189  -155.61189    -0.00000     0.00000    -0.00000
  Local    -303.02052  -303.02052  -303.02052    -0.00000    -0.00000    -0.00000
  n-local   274.69725   276.03525   275.81476    -0.46388    -0.44362    -0.17984
  augment    -4.54725    -4.54725    -4.54725     0.00000     0.00000     0.00000
  Kinetic   611.36961   610.61404   606.18164    -1.71427    -1.67104    -0.67583
  Fock        0.00000     0.00000     0.00000     0.00000     0.00000     0.00000
  -------------------------------------------------------------------------------------
  Total      -0.00519    -0.00519    -0.00519     0.00000     0.00000    -0.00000
  in kB      -0.06412    -0.06412    -0.06412     0.00000     0.00000    -0.00000
  external pressure =       -0.06 kB  Pullay stress =        0.00 kB


 VOLUME and BASIS-vectors are now :
 -----------------------------------------------------------------------------
  energy-cutoff  :      700.00
  volume of cell :      129.63
      direct lattice vectors                 reciprocal lattice vectors
     5.061019145 -0.000000000  0.000000000     0.197588662 -0.000000000 -0.000000000
     0.000000000  5.061019145  0.000000000     0.000000000  0.197588662  0.000000000
     0.000000000 -0.000000000  5.061019145    -0.000000000 -0.000000000  0.197588662

  length of vectors
     5.061019145  5.061019145  5.061019145     0.197588662  0.197588662  0.197588662


 FORCES acting on ions
    electron-ion (+dipol)            ewald-force                    non-local-force                 convergence-correction
 -----------------------------------------------------------------------------------------------
   -.581E-15 0.158E-14 -.511E-14   -.400E-14 -.292E-15 0.175E-15   0.131E-23 -.827E-24 0.414E-23   0.947E-16 -.485E-15 -.204E-14
   -.751E-16 0.167E-12 0.161E-12   -.400E-14 0.166E-15 0.169E-14   0.294E-23 0.000E+00 -.372E-23   -.420E-15 0.173E-15 0.873E-14
   0.166E-12 0.214E-14 -.805E-13   -.356E-14 0.262E-15 0.168E-14   0.843E-24 -.827E-24 0.496E-23   -.194E-16 -.100E-14 0.103E-13
   0.166E-12 0.412E-12 0.629E-12   -.356E-14 0.720E-15 0.343E-15   -.437E-25 0.103E-24 -.165E-23   0.484E-15 -.507E-15 -.196E-14
   0.205E-13 -.112E-14 0.322E-11   0.701E-14 -.408E-14 -.161E-14   -.482E-25 0.331E-23 -.331E-23   -.181E-14 0.150E-14 -.114E-13
   0.208E-13 0.248E-12 0.167E-11   0.685E-14 0.390E-14 0.802E-15   0.574E-24 0.165E-23 0.165E-23   -.885E-15 0.367E-14 0.173E-13
   0.230E-14 -.155E-14 0.244E-13   0.102E-14 -.441E-14 0.804E-15   0.151E-23 0.165E-23 -.207E-24   -.630E-15 0.317E-14 0.162E-13
   0.220E-14 0.185E-13 0.662E-14   0.870E-15 0.357E-14 -.344E-14   0.686E-24 0.248E-23 -.476E-23   -.126E-14 0.455E-14 -.961E-14
 -----------------------------------------------------------------------------------------------
   0.377E-12 0.847E-12 0.562E-11   0.645E-15 -.161E-15 0.448E-15   0.777E-23 0.755E-23 -.290E-23   -.445E-14 0.111E-13 0.275E-13


 POSITION                                       TOTAL-FORCE (eV/Angst)
 -----------------------------------------------------------------------------------
      0.00000      0.00000      0.00000         0.000000     -0.000000      0.000000
      0.00000      2.53051      2.53051         0.000000      0.000000      0.000000
      2.53051      0.00000      2.53051         0.000000      0.000000      0.000000
      2.53051      2.53051      0.00000         0.000000      0.000000      0.000000
      2.53051      0.00000      0.00000        -0.000000     -0.000000     -0.000000
      2.53051      2.53051      2.53051         0.000000      0.000000      0.000000
      0.00000      0.00000      2.53051         0.000000      0.000000     -0.000000
      0.00000      2.53051      0.00000        -0.000000      0.000000     -0.000000
 -----------------------------------------------------------------------------------
    total drift:                                0.000000      0.000000      0.000000


--------------------------------------------------------------------------------------------------------



  FREE ENERGIE OF THE ION-ELECTRON SYSTEM (eV)
  ---------------------------------------------------
  free  energy   TOTEN  =       -30.55406867 eV

  energy  without entropy=      -30.55406867  energy(sigma->0) =      -30.55406867



--------------------------------------------------------------------------------------------------------


    POTLOK:  cpu time    0.1157: real time    0.1161


--------------------------------------------------------------------------------------------------------


     LOOP+:  cpu time    7.4040: real time    7.4507
    4ORBIT:  cpu time    0.0000: real time    0.0000



 total charge     

# of ion       s       p       d       tot
------------------------------------------
    1        2.009   0.040   0.000   2.049
    2        2.009   0.040   0.000   2.049
    3        2.009   0.040   0.000   2.049
    4        2.009   0.040   0.000   2.049
    5        1.579   3.567   0.000   5.146
    6        1.579   3.567   0.000   5.146
    7        1.579   3.567   0.000   5.146
    8        1.579   3.567   0.000   5.146
--------------------------------------------------
tot         14.352  14.429   0.000  28.780


 total amount of memory used by VASP MPI-rank0    32753. kBytes
=======================================================================

   base      :      30000. kBytes
   nonl-proj :        354. kBytes
   fftplans  :        779. kBytes
   grid      :       1326. kBytes
   one-center:          3. kBytes
   wavefun   :        291. kBytes

  
  
 General timing and accounting informations for this job:
 ========================================================
  
                  Total CPU time used (sec):       11.993
                            User time (sec):       10.675
                          System time (sec):        1.317
                         Elapsed time (sec):       12.913
  
                   Maximum memory used (kb):      117252.
                   Average memory used (kb):           0.
  
                          Minor page faults:        29591
                          Major page faults:            0
                 Voluntary context switches:         2877
