  5.9226345e-02   9.3504496e-02
 -3.8501799e-01   6.4010195e-02
  2.4565643e-01   8.9225180e-02
  4.5259991e-01   9.3161747e-02
  1.4776284e-01   7.3930457e-02
 -2.1375860e-01   7.6896653e-02
 -4.6386734e-01   9.8798782e-02
 -4.7150701e-01   7.6411799e-02
 -1.0662539e-02   8.5769162e-02
  7.2543107e-02   9.6773513e-02
 -9.8441012e-02   9.8946810e-02
  2.7830186e-01   8.8830568e-02
  1.8314233e-01   6.9023721e-02
 -2.7100682e-01   7.3162213e-02
 -6.1942115e-02   8.3539538e-02
 -9.4603613e-02   8.7608397e-02
 -8.0980629e-01   8.8965371e-02
 -3.7475869e-01   8.4171303e-02
 -7.3829508e-01   7.5657979e-02
  6.8536133e-01   9.5696971e-02
  4.4449928e-01   9.2090890e-02
  3.6204994e-01   8.5233338e-02
 -5.6010145e-01   6.4661264e-02
  4.9860415e-01   9.3183532e-02
 -2.3439911e-01   9.9458531e-02
  1.4223666e-01   8.8594519e-02
  2.8208810e-01   7.9332568e-02
  6.0413867e-01   7.9300992e-02
  9.1597557e-01   7.8116879e-02
 -2.5379917e-01   9.5197253e-02
  6.3132502e-02   6.7128144e-02
  4.1008618e-01   8.0708742e-02
 -1.6594052e-01   6.8942219e-02
  6.5739524e-01   8.6625233e-02
 -2.5557390e-01   9.6217498e-02
 -5.4317778e-01   9.8823681e-02
 -1.2161364e-01   9.0919152e-02
 -2.2599080e-01   9.4355986e-02
 -1.1634933e-02   7.5245671e-02
 -3.2817360e-02   8.1202269e-02
  2.5856578e-01   8.5534200e-02
 -2.1290815e-02   8.5230380e-02
  9.5970041e-01   8.5158840e-02
 -1.6652243e-01   8.6960100e-02
 -3.8914174e-01   8.4262833e-02
  2.4482003e-01   9.8354638e-02
 -2.9104820e-01   7.9551175e-02
  9.5938109e-02   7.7065945e-02
 -3.6266798e-01   8.6039238e-02
  6.0780931e-01   8.3792783e-02
 -2.9510230e-01   8.9231119e-02
 -2.2220045e-01   9.0337947e-02
  3.2212430e-01   8.6926684e-02
  3.3203330e-02   8.2190521e-02
 -2.3538619e-01   9.8091558e-02
  1.6573036e-01   6.7666337e-02
  6.3329226e-01   7.4585058e-02
 -3.8558954e-01   8.8502392e-02
  1.2070519e-01   9.0807520e-02
  4.3443087e-02   8.0909170e-02
  4.7851944e-01   7.0555277e-02
 -3.4282020e-01   7.5549565e-02
 -7.5411332e-01   9.5962070e-02
 -1.2041422e-01   9.7515076e-02
  1.0969169e+00   9.5631920e-02
  2.0801748e-01   1.0000000e-01
 -1.5141232e-02   8.7477550e-02
 -4.2217249e-01   8.7251902e-02
  2.3169309e-01   6.6670947e-02
 -1.3435324e-01   7.1250670e-02
 -4.4330042e-02   9.3345247e-02
 -3.2069858e-02   8.0870204e-02
  3.1009397e-01   7.2511323e-02
 -7.9030931e-01   8.2473435e-02
  1.1265313e-01   9.4037250e-02
 -1.6652542e-01   9.5745169e-02
 -3.4678328e-01   1.0000000e-01
 -1.5391419e-02   9.6972942e-02
 -3.3126393e-01   8.0815427e-02
  4.6873632e-01   9.5985696e-02
  4.1255304e-01   8.1790343e-02
 -6.5250558e-01   9.8269612e-02
  3.7854207e-01   7.7237599e-02
 -1.6101924e-01   9.2378549e-02
  8.1318909e-01   7.5706936e-02
  1.1080775e+00   8.7470539e-02
 -7.3499329e-02   7.8581944e-02
 -5.5519134e-01   1.0000000e-01
 -2.9468387e-01   8.3232768e-02
  7.9294704e-02   9.9752977e-02
  2.4558033e-01   8.0602646e-02
  1.7146191e-01   8.9904256e-02
 -3.1424090e-01   8.1131883e-02
  5.7791546e-04   8.4428556e-02
 -2.0141494e-02   8.3537385e-02
 -1.0665417e-01   7.8239918e-02
 -6.2944698e-01   7.9988606e-02
  5.6010246e-01   8.0502868e-02
  1.9926187e-01   9.5748544e-02
 -2.2826006e-01   6.3101016e-02
  3.7179250e-01   7.4093685e-02
 -6.3277370e-01   8.6230524e-02
  4.4190320e-01   9.5185205e-02
  2.1713482e-02   8.9802891e-02
 -2.6006463e-01   9.9056832e-02
  6.8381673e-01   6.9462255e-02
 -2.8491822e-01   9.9176913e-02
 -9.3150944e-01   9.2607960e-02
  4.3455686e-02   8.2998767e-02
  3.5679657e-02   7.1762070e-02
  4.1269321e-02   7.9957955e-02
 -7.7259921e-02   9.7577788e-02
 -2.3363902e-01   7.5386822e-02
 -7.3122579e-01   8.9728706e-02
  7.8947479e-01   8.2855739e-02
  1.1454849e-01   9.8895915e-02
 -1.0324475e-02   9.9574663e-02
  4.2682415e-01   9.5464155e-02
  9.3086421e-02   8.3779186e-02
  2.4978285e-01   9.1461301e-02
  2.1511190e-01   8.5665680e-02
  3.7621219e-02   8.4507011e-02
 -1.0133425e+00   9.6777737e-02
 -1.0419456e-01   9.8675624e-02
 -4.5476985e-01   8.2046151e-02
 -3.9208755e-01   9.4151624e-02
  4.5714524e-01   8.0021568e-02
 -8.7626439e-01   9.5601954e-02
  3.4779221e-01   8.6024858e-02
 -5.4405761e-01   9.4696522e-02
 -4.0547213e-01   8.7966494e-02
 -5.8952773e-01   8.9500487e-02
  1.9026352e-01   9.9038512e-02
 -6.2481296e-01   8.4241182e-02
 -2.8188488e-01   9.2956208e-02
 -2.0342579e-01   7.2155580e-02
  2.0899317e-01   9.5404729e-02
 -2.6768962e-01   9.4988592e-02
  2.6304945e-01   9.4947450e-02
  5.0908420e-02   8.0640391e-02
 -5.9724081e-01   9.9329382e-02
 -4.8323029e-01   9.9509336e-02
  1.3273332e-03   9.1619022e-02
 -4.4739807e-01   7.8647889e-02
  1.5632248e-02   8.7510929e-02
  1.5776731e-01   7.4889347e-02
  1.5541336e-01   9.8493949e-02
  2.5883809e-01   8.0583051e-02
  1.2302287e+00   7.5409710e-02
  5.1779372e-01   7.6808393e-02
 -5.2898276e-01   8.2365535e-02
 -3.5210711e-01   9.2516854e-02
 -3.8401917e-01   9.0769686e-02
 -6.2682050e-01   7.9501681e-02
 -3.7854612e-01   8.9760564e-02
  1.5170500e-01   9.1806643e-02
 -5.6357080e-01   8.4185354e-02
  2.8651354e-01   7.7468403e-02
  8.1635022e-01   9.1096088e-02
 -4.3471493e-02   9.3748756e-02
 -1.5636088e-01   8.1028968e-02
  3.9591739e-01   7.4485675e-02
 -3.2029860e-02   8.7351024e-02
  2.1268623e-01   6.9222718e-02
  2.7178183e-01   6.4798668e-02
  2.9684281e-01   7.3875062e-02
  7.2990960e-01   9.7428389e-02
 -5.7033074e-01   6.8775490e-02
 -2.5073352e-01   9.4034903e-02
 -1.8698782e-01   8.9257300e-02
  1.7135981e-01   7.5451560e-02
 -1.2607807e-01   8.9255936e-02
 -2.6728634e-02   8.6765893e-02
  1.9735900e-01   8.5882097e-02
  9.7857428e-01   7.4365921e-02
 -2.3340450e-01   9.7316325e-02
  3.2210830e-01   8.8706009e-02
 -3.0730876e-01   8.7978989e-02
  4.2700952e-01   1.0000000e-01
 -3.5794026e-01   9.7240806e-02
  5.8161631e-02   8.8512912e-02
  1.1558294e-01   1.0000000e-01
  1.2725684e-01   9.0197802e-02
 -5.1631230e-01   8.8092916e-02
  8.1742042e-01   9.5416874e-02
 -4.3725532e-01   6.6985048e-02
 -3.3651021e-01   7.6565973e-02
 -3.6777964e-01   9.8740272e-02
  6.3745672e-01   8.0284983e-02
 -5.8227111e-02   9.4683275e-02
 -2.1510351e-01   8.3739512e-02
  3.7786847e-01   8.4396340e-02
  3.6294004e-01   9.2140898e-02
 -2.5807354e-01   7.4410215e-02
  5.9803289e-01   8.7633915e-02
 -3.2602784e-01   9.7804971e-02
 -2.8137252e-01   8.9353025e-02
  3.3435336e-01   9.4125926e-02
  7.0430499e-01   9.1727465e-02
  2.8010705e-01   8.4594011e-02
 -2.6421052e-01   9.3275182e-02
 -3.3022612e-01   7.3786318e-02
 -2.2734232e-01   9.2422009e-02
 -5.5492993e-02   9.5120549e-02
  2.6266822e-01   9.4949402e-02
 -4.6676299e-01   7.9417281e-02
 -3.7637848e-01   7.9149984e-02
  2.9599127e-01   9.5432736e-02
  9.3763477e-01   7.5953744e-02
  1.7910283e-02   9.9396385e-02
 -2.1191607e-01   9.2968471e-02
  9.1560930e-01   9.6664034e-02
  2.5198239e-01   8.1418775e-02
 -4.5836982e-01   9.4153523e-02
  2.8551170e-01   9.5448785e-02
  1.1874294e+00   8.6726032e-02
 -7.8450225e-02   9.6270099e-02
 -1.8756567e-01   8.5300773e-02
  2.4053456e-01   9.2988685e-02
 -1.6596591e-01   9.6463762e-02
  6.5350264e-01   8.9146465e-02
  2.8544211e-01   9.7905718e-02
 -7.2394229e-02   9.4446905e-02
  5.9449177e-02   8.3071515e-02
  1.3430582e-01   7.4772678e-02
  2.3204368e-01   7.1426004e-02
 -7.0131469e-01   6.5320097e-02
  4.0392458e-01   8.9221358e-02
  1.7286471e-01   7.1882918e-02
  1.1167286e-01   9.5973983e-02
 -1.3383141e-01   7.8698359e-02
 -3.4898934e-01   9.8775536e-02
  6.6986330e-02   8.5195720e-02
  3.1933287e-01   9.2905685e-02
 -4.8891890e-01   8.6530127e-02
  4.0394309e-01   9.6506685e-02
 -1.2325412e+00   9.8274656e-02
 -1.1574535e-01   7.9853073e-02
  1.9183652e-01   7.1295358e-02
  4.6073624e-01   8.2297601e-02
  7.6377973e-02   8.3172552e-02
  7.2373086e-01   8.2220599e-02
 -1.2582064e-01   9.0444051e-02
  4.1447932e-01   7.8103781e-02
  2.7014089e-01   8.7142773e-02
  9.5148675e-02   8.2777895e-02
 -1.4076614e-01   8.5426077e-02
 -5.9760284e-01   9.8952122e-02
  6.8265080e-01   6.6662796e-02
 -9.1174006e-02   8.6798735e-02
  1.1058865e+00   7.4369512e-02
 -4.9936652e-01   9.9674277e-02
 -7.6195145e-01   8.9223005e-02
  3.9293242e-01   7.4730657e-02
 -2.9956156e-01   8.4209844e-02
  8.0447209e-01   9.8936379e-02
 -3.7978783e-01   9.7546481e-02
  2.9048878e-01   9.9243306e-02
 -3.4272041e-02   7.2788954e-02
 -1.0950711e-03   7.6330557e-02
 -8.0959484e-02   7.7030994e-02
 -5.5518782e-01   9.0271890e-02
 -3.3386678e-02   9.9593811e-02
  3.9654958e-01   8.0537558e-02
 -1.1736755e-01   8.8770337e-02
  5.0827827e-02   8.3268568e-02
 -1.7063979e-02   9.4365112e-02
  2.0248784e-01   8.4150061e-02
  4.6360365e-01   9.4117507e-02
 -1.3712831e-01   9.6126184e-02
  2.4387372e-01   9.5408268e-02
 -6.1567271e-01   6.8117775e-02
  5.5766624e-01   7.5842604e-02
 -4.3941838e-01   9.2823491e-02
 -1.4473461e-01   7.4364141e-02
  5.1277143e-01   7.4567489e-02
 -1.5824322e-01   8.9243896e-02
  5.6348276e-01   8.7690562e-02
 -3.4761873e-01   8.3549641e-02
  1.9669302e-01   8.8833101e-02
 -4.4922534e-01   7.2499752e-02
 -1.8744130e-01   9.7875625e-02
  5.2005976e-01   8.8003486e-02
 -2.4128726e-01   9.5822066e-02
 -2.1852292e-02   1.0000000e-01
  1.1405333e+00   7.9631299e-02
 -1.0830252e+00   9.6520893e-02
  5.5372947e-01   8.4240273e-02
 -1.6777021e-01   8.5998811e-02
 -1.7817988e-01   9.1899030e-02
 -1.7393260e-01   9.0937957e-02
 -5.6830877e-01   7.7029556e-02
  1.2646878e-01   9.9958353e-02
  3.4123355e-01   8.3473124e-02
 -1.5605439e-01   8.7469220e-02
 -1.2708837e-01   8.6023018e-02
  7.1966249e-01   8.4964909e-02
 -2.5077084e-01   9.3380228e-02
  1.3108283e-01   9.2273928e-02
  7.3177353e-02   8.5151553e-02
  1.2504645e-01   8.9308031e-02
 -2.7540969e-03   8.8588201e-02
 -4.7509256e-03   8.8491797e-02
  2.6867379e-02   7.9273567e-02
  2.5537698e-02   8.2330361e-02
  2.6881903e-01   9.1560021e-02
  3.3135816e-01   8.5451461e-02
 -6.7576848e-02   8.6740166e-02
 -5.6740418e-02   8.6235993e-02
 -3.9354768e-01   8.0698505e-02
  3.8510743e-01   8.0118902e-02
  6.3060874e-01   8.0951221e-02
 -8.5987943e-01   9.7785123e-02
  5.8997291e-01   8.2777917e-02
  4.4362035e-01   9.6458778e-02
  2.5201461e-01   8.0302268e-02
 -1.4330968e-01   9.1166802e-02
  2.8758988e-01   9.0300776e-02
 -3.7652847e-01   8.5665435e-02
 -3.5085568e-01   8.5511066e-02
  9.2668718e-01   9.0952963e-02
  1.6587891e-01   7.9127803e-02
  2.3039621e-01   7.8986891e-02
  5.1910567e-01   9.8701127e-02
  5.8778101e-01   9.6128039e-02
 -6.4704284e-02   8.9684658e-02
  2.4771252e-01   9.2800200e-02
  3.4017716e-02   9.7172849e-02
 -1.7487141e-01   8.2914717e-02
 -3.3957204e-01   9.7290248e-02
 -2.6193658e-01   8.0112286e-02
  4.1667724e-01   8.6316213e-02
 -3.1375027e-01   8.4064923e-02
 -3.7795836e-01   9.5852882e-02
 -5.2991498e-01   9.6323177e-02
  2.1436681e-01   9.5332019e-02
 -3.3888251e-01   9.2496403e-02
  7.2557285e-02   6.8906002e-02
  1.6222592e-01   7.5275198e-02
  4.5089075e-01   7.9463162e-02
  3.8267964e-01   8.9530259e-02
 -2.7488413e-01   8.1644870e-02
 -5.4941541e-01   8.5121416e-02
  3.3076710e-01   7.2776601e-02
 -4.6340847e-01   9.7704381e-02
  2.2883838e-01   9.9290542e-02
 -3.7815547e-01   9.6592218e-02
  1.7102706e-01   8.8956431e-02
  5.5130887e-01   7.7575780e-02
 -3.6565962e-01   9.1771640e-02
 -1.1366877e-01   7.4368589e-02
 -1.6020057e-01   8.5881531e-02
  6.1941725e-01   5.6010906e-02
  1.0442787e-01   8.7010443e-02
  4.4285008e-01   9.3589216e-02
 -8.0441701e-01   8.9173965e-02
  4.7720641e-01   8.8474162e-02
  3.3221486e-01   9.3367673e-02
 -1.4383042e-01   9.4223306e-02
 -5.9133437e-02   8.1574880e-02
 -8.8008291e-01   1.0000000e-01
 -6.1139846e-01   8.5825868e-02
 -1.2325884e-01   8.4418245e-02
 -5.3242970e-01   9.5487252e-02
  5.0514567e-01   9.0626307e-02
  1.7988577e-01   9.2125729e-02
 -1.7634943e-01   7.7552877e-02
  2.6844099e-01   7.0644937e-02
  1.6828848e-01   9.9475361e-02
  7.1186483e-02   9.7917736e-02
 -4.9360853e-01   9.4210528e-02
  3.4796590e-01   9.7956538e-02
  8.7255202e-02   9.3493536e-02
  1.7140010e-02   9.1456078e-02
 -8.8068569e-01   9.1590211e-02
 -3.5325387e-01   5.8314569e-02
 -6.2242401e-01   9.1122590e-02
 -4.0339923e-01   7.5808704e-02
 -3.8648748e-01   7.8743786e-02
  2.8056547e-01   9.4108984e-02
 -4.6364340e-01   8.3185375e-02
  1.7618245e-02   9.3661927e-02
 -3.9953446e-01   7.1303137e-02
  4.1032642e-01   9.7387135e-02
 -5.6149371e-02   6.5517962e-02
  7.0369047e-01   6.6428386e-02
  2.7652970e-01   9.3520269e-02
  3.0431312e-01   9.4329648e-02
  4.3179053e-01   8.1805520e-02
  7.4544884e-02   7.4016795e-02
  8.4772980e-01   9.9572949e-02
  1.0039323e-01   8.6373635e-02
 -3.0562428e-01   8.9061126e-02
  4.2586234e-01   8.5475050e-02
  3.6820760e-01   8.1562564e-02
 -4.3538444e-02   8.4816530e-02
  2.4712586e-03   8.4957957e-02
  2.9571245e-03   7.7137783e-02
  2.1691775e-01   8.7606072e-02
 -4.1034740e-01   7.8776494e-02
 -2.8078261e-01   9.3953013e-02
  2.2334883e-01   9.2381120e-02
  4.2028338e-01   7.0934415e-02
 -1.0306033e-01   9.2404425e-02
 -6.6064346e-01   8.2566366e-02
 -9.6716769e-02   8.0915533e-02
 -1.8001512e-01   9.3164146e-02
  3.0214686e-02   9.8421037e-02
  6.7425370e-02   8.1854329e-02
  9.4511621e-02   8.4294543e-02
  1.4957096e-01   7.3682390e-02
 -2.2962025e-01   8.7616108e-02
 -3.7105358e-01   9.8328993e-02
 -1.3388182e-02   8.5536934e-02
  9.2630631e-01   9.1090389e-02
 -1.4605218e-01   7.6846793e-02
 -8.8908575e-02   9.5951438e-02
 -3.7769678e-01   8.7262593e-02
  2.4044490e-01   7.8417808e-02
  5.1841372e-01   8.3102547e-02
  5.6332670e-02   7.2093137e-02
 -6.2173262e-02   7.8293584e-02
  7.3340940e-01   7.7794828e-02
  6.6151750e-01   7.2831608e-02
  5.1375663e-01   9.1685556e-02
  7.6793003e-01   9.5529154e-02
  2.3388387e-01   8.5837781e-02
  5.0304770e-01   9.0527996e-02
 -6.3386597e-02   9.7195700e-02
 -6.7169714e-01   8.2635134e-02
 -4.0574625e-01   8.8180266e-02
 -3.9957547e-01   9.4012968e-02
 -3.2135504e-01   8.9031726e-02
  1.5713887e+00   8.7465495e-02
  1.6118233e-03   9.6421100e-02
 -2.0432062e-01   6.9248527e-02
 -1.2064663e-01   8.4380634e-02
 -3.9577422e-01   7.7281572e-02
 -2.0817335e-01   7.1452625e-02
 -1.8105869e-01   6.3966848e-02
 -1.0110107e-01   9.3563393e-02
  6.3850081e-01   9.7229138e-02
  1.9597189e-01   7.7730834e-02
  9.6146181e-02   6.9437392e-02
 -5.6304151e-01   8.5730299e-02
 -2.6903731e-01   9.1298670e-02
 -5.7587638e-02   8.3091132e-02
 -2.7348208e-01   8.6885028e-02
 -8.8384405e-02   9.1649547e-02
 -6.1623132e-01   9.7139761e-02
  5.4474324e-01   8.1323095e-02
  1.7801045e-01   7.1724214e-02
  1.1262276e+00   8.5659362e-02
 -3.6567652e-01   9.1368340e-02
 -6.1901319e-03   8.4950760e-02
  3.1256095e-01   9.6847989e-02
  1.1489739e+00   8.6693205e-02
 -1.6887552e-01   9.1181293e-02
  1.2835295e-01   9.8653831e-02
  4.9655236e-02   7.5962029e-02
 -3.3676469e-01   9.2796408e-02
 -5.3483263e-02   8.1253007e-02
  3.6825934e-01   9.7159110e-02
 -3.1027439e-01   9.1960177e-02
 -2.2126330e-01   9.0429962e-02
  2.6569793e-01   8.6044751e-02
 -4.9677590e-01   9.3597069e-02
 -3.6919305e-01   8.5930251e-02
 -4.4379523e-01   9.3948290e-02
 -8.9615613e-02   9.8004542e-02
 -2.1157773e-01   9.4040014e-02
  8.5510814e-01   7.0353515e-02
  1.0671919e-01   7.5677812e-02
 -2.5294244e-01   9.5066890e-02
  2.1490879e-01   9.9485390e-02
  7.7660716e-01   9.7685389e-02
 -1.3503183e-02   9.1140322e-02
  4.5730519e-01   9.2732772e-02
  9.3061760e-02   7.3191226e-02
  3.4893814e-02   8.8015996e-02
 -8.3686970e-02   7.3521107e-02
  4.4450253e-02   9.5123373e-02
  1.2498231e-01   7.7531517e-02
  6.4923030e-01   8.6080983e-02
 -4.6748012e-01   9.5977113e-02
  7.2274372e-02   8.8266127e-02
 -4.1330564e-01   8.9089148e-02
  1.4948756e-01   7.3188536e-02
  3.7853909e-01   7.7993043e-02
  2.2058912e-01   7.8197502e-02
 -8.5688305e-01   9.6132055e-02
  2.0351538e-01   7.3163010e-02
  1.9792296e-01   6.5633163e-02
  6.9785559e-01   8.2712404e-02
 -4.2248702e-01   8.3875388e-02
  7.0475036e-01   7.4324660e-02
 -2.8815525e-02   9.3554743e-02
  2.3822868e-01   7.4661389e-02
 -9.7375333e-01   9.4389312e-02
  4.4048649e-01   8.1807368e-02
  4.8742108e-03   8.6850233e-02
  3.6750588e-01   9.9916250e-02
  1.4416739e-01   9.0053827e-02
 -3.8594115e-01   8.2640432e-02
 -2.3982729e-01   8.4643826e-02
 -2.4758674e-01   8.0310456e-02
 -6.7912477e-01   8.9299060e-02
  1.0371932e-01   9.0838671e-02
 -3.2861185e-01   7.5427718e-02
  1.4958413e-01   8.9001834e-02
  2.6420340e-01   9.8923311e-02
  4.0904805e-01   7.7861935e-02
  2.1017551e-01   9.9059440e-02
  8.9356460e-02   8.4340498e-02
 -7.5204355e-01   9.5629640e-02
  1.7769852e-01   8.6107232e-02
  4.8837095e-02   7.6370344e-02
  8.6716497e-01   9.4162934e-02
 -9.3701355e-02   8.1921369e-02
 -2.9252771e-01   8.6124681e-02
 -1.0635439e-01   8.7353244e-02
  4.9892846e-01   8.1191167e-02
 -2.5863650e-01   7.9385020e-02
 -1.5553743e-02   9.3879059e-02
 -3.7531111e-01   8.4253177e-02
  1.6842553e-01   8.5151590e-02
 -2.6557368e-01   8.2655251e-02
 -3.0079609e-01   9.5628321e-02
 -3.3693776e-01   8.3497047e-02
 -5.6099600e-01   9.6213788e-02
 -5.6228977e-01   7.3708944e-02
  2.9003441e-01   9.9260181e-02
 -2.0130354e-01   9.0112679e-02
 -1.4396517e-02   8.3311968e-02
 -1.3150708e-01   8.4563971e-02
 -1.0901515e+00   8.4032878e-02
  1.1490820e-01   8.5515171e-02
  4.2391725e-02   8.9544348e-02
 -7.4662489e-01   8.6307749e-02
  4.6613890e-01   8.9858964e-02
  3.3637813e-01   8.9554898e-02
 -3.2136118e-01   9.6861660e-02
 -2.1556867e-02   8.4407844e-02
  2.3943065e-01   8.3313435e-02
 -1.5396903e-01   9.2036426e-02
  5.3745669e-01   8.6313456e-02
  1.4188108e-01   9.9055268e-02
  1.0299788e+00   9.0908818e-02
  4.2344236e-01   9.4753958e-02
  4.3810636e-01   6.6215947e-02
  2.6982654e-02   9.1910675e-02
  8.5609600e-02   9.0467952e-02
 -1.5276349e-01   9.5515475e-02
 -6.8017244e-01   8.5730523e-02
 -8.0828470e-01   8.2999721e-02
 -7.5492179e-01   7.4256398e-02
 -6.8646371e-02   7.5843409e-02
  1.1737907e-01   6.8685889e-02
 -2.8907928e-01   9.3272373e-02
 -5.7213771e-01   7.2662219e-02
 -5.5685741e-01   7.3044136e-02
  5.2093947e-01   8.9177951e-02
 -2.3134501e-01   8.7114416e-02
  3.4326103e-01   7.8978039e-02
  4.0647739e-01   7.6721273e-02
  1.5761323e-01   7.8105062e-02
 -9.5887762e-01   9.7683534e-02
 -5.4231644e-01   9.9162199e-02
 -5.0804436e-01   8.9041121e-02
 -1.1440815e-01   9.2565127e-02
  4.8812109e-01   8.8266760e-02
  4.9516890e-02   7.3153153e-02
 -5.0540048e-01   7.7910945e-02
  2.1590281e-01   8.6833589e-02
  6.3606828e-02   8.7559089e-02
  5.0159401e-01   6.9401279e-02
  6.0572550e-02   8.8702604e-02
  9.1985977e-01   8.1708312e-02
 -6.8718708e-01   7.1209565e-02
  8.6407864e-01   8.8812880e-02
 -5.4391766e-01   7.6482840e-02
 -1.0646394e-02   9.2673153e-02
  1.1439196e-01   9.1628544e-02
  3.6356968e-01   9.8140307e-02
  2.2149795e-01   9.8579668e-02
 -6.2764955e-01   8.7315865e-02
 -9.9947608e-01   9.2414193e-02
  3.2742292e-01   7.9801589e-02
 -4.6477255e-01   9.9863611e-02
  4.6154892e-01   9.2808291e-02
 -2.3982525e-01   7.8334793e-02
  3.1346408e-01   7.7154458e-02
  1.7819828e-01   6.4368077e-02
  2.5117928e-01   6.4843096e-02
 -1.3953760e-01   6.8103805e-02
  4.4770762e-01   9.1160201e-02
  1.9165356e-02   8.3311662e-02
 -7.2027129e-01   8.6475968e-02
 -4.2784724e-01   8.3854124e-02
  4.7438085e-01   8.9315079e-02
 -3.3112716e-02   9.8151438e-02
  3.2960626e-01   8.5501313e-02
 -2.7998794e-02   9.7524658e-02
  1.7159455e-01   9.6391134e-02
  1.9323833e-01   8.1392251e-02
 -5.2534842e-01   7.1455859e-02
 -3.5758749e-01   9.9734627e-02
  1.5410337e-01   9.3051217e-02
 -2.4055408e-01   8.4357820e-02
 -2.0220555e-01   9.3909778e-02
 -4.0998304e-01   8.5511737e-02
 -9.0801030e-01   7.6745421e-02
  1.1997285e-02   8.6972937e-02
  4.3342742e-01   9.1911949e-02
 -3.3570695e-01   9.2782140e-02
 -2.8458408e-01   9.7873352e-02
 -2.9599088e-01   9.8072633e-02
  8.8416293e-02   8.3470047e-02
 -6.6887587e-01   8.4659480e-02
  2.4107793e-01   8.2491860e-02
 -5.3965545e-01   8.9438461e-02
 -7.5896460e-01   9.8133348e-02
  2.3694211e-01   9.0560839e-02
 -5.4862303e-01   9.3374968e-02
  7.9725258e-02   8.6258583e-02
  2.4972446e-01   9.4805881e-02
  6.7195468e-02   9.6493296e-02
 -9.2524245e-02   8.5579008e-02
  5.3737313e-01   9.4828099e-02
 -2.9198658e-01   8.4161349e-02
 -3.9680555e-01   7.6618738e-02
  4.5264670e-01   9.3933277e-02
 -4.8538414e-01   8.4540576e-02
  3.2441810e-01   7.6558508e-02
  3.4622046e-01   8.2679324e-02
 -2.1695775e-01   8.4459513e-02
 -1.6017276e-01   7.8954481e-02
  8.4968966e-01   1.0000000e-01
  6.6462839e-01   8.5852906e-02
  5.8466548e-01   8.2460143e-02
  4.1729829e-01   9.6766107e-02
  2.7826774e-01   7.5438388e-02
  3.0508739e-01   8.0036305e-02
 -8.0446076e-01   6.7164965e-02
  3.8636711e-01   8.1607305e-02
  2.9206687e-01   8.9637838e-02
  3.5869652e-01   8.6841099e-02
  2.2569692e-01   7.5766757e-02
  7.5390744e-01   9.0898246e-02
  1.8153831e-01   8.8726453e-02
 -1.5029512e-01   7.7581070e-02
 -5.3981397e-02   8.8740930e-02
 -1.6742383e-01   8.8984869e-02
 -5.0649624e-02   8.1671417e-02
  4.2550415e-01   7.7476844e-02
  4.7877738e-01   9.2622697e-02
  2.0701022e-01   9.2217654e-02
 -3.4215596e-01   7.9506680e-02
 -8.2238621e-01   9.0948276e-02
 -1.2034681e-01   7.3655777e-02
 -8.2808733e-02   8.9734524e-02
 -7.3464125e-01   9.9635966e-02
  1.5311323e-01   8.8882506e-02
  2.8369930e-01   8.4130488e-02
  8.6127840e-02   9.7677886e-02
  7.9621375e-01   9.8599419e-02
 -4.6218451e-02   8.0788143e-02
  1.0947020e-01   8.5593261e-02
 -5.6893259e-01   6.9985881e-02
  5.8843380e-01   6.7823656e-02
 -3.7674743e-01   9.2299804e-02
  3.4109217e-01   7.9206228e-02
  3.4510475e-01   7.5533114e-02
 -7.7150923e-01   9.6529350e-02
  4.9808446e-01   8.0447577e-02
  7.2281711e-02   9.8126419e-02
  5.6884444e-01   9.5994085e-02
 -1.2977427e-01   9.0841800e-02
 -3.6963788e-01   9.7424947e-02
 -3.3210599e-01   8.4878556e-02
 -3.3271852e-01   9.3440473e-02
  5.6102866e-01   7.3372848e-02
 -8.5025392e-02   9.0914719e-02
 -1.9576348e-01   8.4725030e-02
 -4.4581127e-01   6.1676990e-02
  3.2561076e-01   9.1589548e-02
 -5.9214678e-02   7.5793713e-02
 -5.6797016e-02   9.0624869e-02
  4.5972767e-01   8.2935147e-02
 -1.0152167e+00   7.2517872e-02
  3.6139387e-01   8.4501959e-02
  6.5720332e-01   9.8755814e-02
 -9.9908000e-01   9.7807191e-02
  1.8715802e-01   9.7518452e-02
 -1.3733554e-01   9.9041238e-02
 -2.1949038e-01   8.8049881e-02
 -4.9892083e-01   9.4654307e-02
  7.5534588e-01   9.0056300e-02
 -1.8501063e-01   6.5825514e-02
 -4.0097007e-01   7.9460822e-02
 -3.6984339e-01   6.4839222e-02
 -3.6377400e-02   7.8654930e-02
  1.9797850e-01   8.6569667e-02
  9.2279956e-02   7.1556449e-02
 -4.5003879e-01   8.8499904e-02
 -1.2749743e-01   9.4469860e-02
 -1.5366644e-01   8.3403215e-02
 -1.4636074e-01   9.7626172e-02
 -2.8461632e-01   8.1878401e-02
 -4.8711026e-01   8.9412078e-02
  1.1407801e-01   6.2629193e-02
  6.3230854e-01   9.3136504e-02
  2.3062186e-01   7.4322134e-02
 -1.2966436e-01   8.1697799e-02
 -2.6435572e-01   7.4856155e-02
  3.6660305e-01   9.1313519e-02
 -9.2928791e-03   7.5509764e-02
 -3.3290631e-01   7.7931419e-02
 -6.4087409e-01   7.8723915e-02
 -1.1808489e-01   8.6316288e-02
 -2.2518553e-01   8.3934896e-02
 -7.3421322e-02   6.0070984e-02
 -1.5859599e-01   7.1358271e-02
  1.1384194e-01   6.8164177e-02
 -2.0141575e-01   1.0000000e-01
 -1.7392628e-01   8.2965724e-02
 -6.1751902e-02   6.9011778e-02
  3.7986678e-01   8.4184609e-02
  4.4044945e-01   7.8053206e-02
  2.9966244e-01   9.7521424e-02
 -2.5008321e-01   9.7699210e-02
  4.6430144e-01   8.3601959e-02
  1.6989743e+00   8.2047783e-02
 -2.0551696e-02   8.6490758e-02
  5.4436022e-01   9.4210088e-02
 -4.7131097e-01   6.5920345e-02
  9.4850129e-01   8.8145725e-02
 -2.6312602e-01   8.8193797e-02
 -7.6126379e-01   8.4711805e-02
  3.1159160e-01   8.1059255e-02
  8.1322587e-01   6.9447033e-02
 -3.7791193e-01   9.9341638e-02
 -5.0077128e-01   8.3377548e-02
  6.4893931e-01   8.8987246e-02
 -7.3316103e-01   9.6478134e-02
  7.4896628e-01   9.7816229e-02
  1.2934488e-01   8.1560731e-02
 -2.1498296e-01   9.4204679e-02
 -1.8482514e-01   9.8805942e-02
  5.3013146e-01   9.5794037e-02
 -2.3286854e-01   8.3780162e-02
 -1.9452028e-02   9.5463879e-02
 -1.5871178e-01   8.7211214e-02
  3.5307771e-01   8.2561903e-02
 -5.1001132e-01   9.4794348e-02
 -9.5387000e-01   8.6768754e-02
 -4.2926726e-01   6.1456759e-02
 -1.3100228e-01   8.0299862e-02
 -3.4216997e-01   9.8366410e-02
 -8.3159208e-02   8.4434859e-02
 -5.7360286e-01   9.0671390e-02
 -4.6899793e-01   9.1659442e-02
 -3.9517638e-01   6.6469409e-02
 -6.9051844e-01   6.9611207e-02
 -7.6871943e-01   7.7433027e-02
  4.6147412e-01   9.3536809e-02
 -3.4529563e-02   8.9597762e-02
  4.9283865e-01   9.5121264e-02
 -2.8178111e-01   7.0346057e-02
 -4.4709930e-01   9.8928019e-02
 -5.6282324e-01   6.4566866e-02
 -3.8247949e-01   7.1792029e-02
 -7.0405936e-01   8.9966774e-02
 -2.8940347e-01   9.1904365e-02
 -8.5214145e-02   8.8289142e-02
 -5.8686984e-01   8.8800877e-02
  1.0331192e-03   7.6829083e-02
 -4.9288917e-01   8.7007098e-02
  2.5160494e-01   9.3318962e-02
  1.8759246e-01   8.7943695e-02
  6.0129976e-01   9.0025678e-02
 -1.1028360e-01   9.7486943e-02
 -5.9645880e-02   9.0754129e-02
 -6.4325112e-01   8.4114745e-02
  3.1766459e-01   8.3153374e-02
  3.0009559e-01   9.0575144e-02
  3.0683073e-01   8.5694142e-02
 -4.9412813e-02   8.4472150e-02
 -3.2479361e-01   9.9142581e-02
  2.4654317e-01   9.6709207e-02
 -1.6222183e-01   9.7244911e-02
 -5.5060357e-01   7.5611219e-02
  6.9258288e-02   6.5096773e-02
 -3.6865491e-01   8.0922641e-02
 -3.2346178e-02   9.0144753e-02
  1.4881985e-01   9.0303577e-02
  7.7822083e-01   9.8446801e-02
 -3.5609776e-01   7.6150894e-02
  5.5287514e-02   8.9955442e-02
 -1.7594795e-01   9.5561884e-02
 -1.2344178e+00   9.1569290e-02
  4.9164468e-01   8.2567401e-02
 -6.0840434e-01   8.4982961e-02
  3.7251636e-01   8.4616639e-02
  3.1945920e-01   9.3867667e-02
  1.1296516e-01   8.3970964e-02
 -5.1860854e-02   9.7124994e-02
 -1.0365795e-01   9.0104543e-02
 -3.2475945e-01   7.2409593e-02
  7.0689537e-02   8.6786591e-02
 -7.1466655e-01   8.8876449e-02
  2.6229954e-01   9.7518720e-02
  2.5962353e-01   6.9109716e-02
  4.0712303e-01   7.3898599e-02
 -1.9225110e-01   7.9974763e-02
 -2.7556634e-01   9.3065798e-02
 -4.0019694e-01   8.8229910e-02
 -3.0787832e-01   9.5649093e-02
 -5.3487575e-01   8.0658689e-02
 -7.2883910e-01   9.1418505e-02
  1.2645642e-01   9.3268320e-02
  3.5119798e-02   7.4970342e-02
 -7.3447615e-01   9.7352467e-02
 -5.9550393e-01   8.8999383e-02
  1.3189386e-01   8.9337416e-02
 -1.2648914e-02   8.0931447e-02
 -2.3247573e-01   8.6323343e-02
  7.1616697e-01   9.8065548e-02
 -8.3528453e-01   8.8094294e-02
  1.5996209e-01   8.0984242e-02
  5.5466974e-01   6.7275174e-02
  1.4895932e-01   9.8277986e-02
  3.7781265e-01   8.5216314e-02
  8.8389434e-02   7.2434209e-02
  4.0228063e-01   7.5110070e-02
  2.0155099e-01   7.9437092e-02
 -1.0312627e-01   9.9404715e-02
 -8.7646151e-01   9.1433585e-02
  3.2054678e-01   8.5144535e-02
  1.1546766e+00   5.7444241e-02
 -1.7914376e-01   7.3585391e-02
  2.0003939e-01   6.3476630e-02
  2.1597740e-01   8.9391597e-02
 -8.3931404e-01   7.3032208e-02
  3.8803983e-01   9.4003886e-02
  8.8605714e-01   7.9451151e-02
  4.1711366e-01   8.5435830e-02
 -2.3628914e-01   7.5371981e-02
 -5.0650865e-01   9.1180272e-02
 -2.6211014e-01   9.2716850e-02
  3.5448995e-01   9.3596324e-02
 -1.4840133e-02   7.9519302e-02
  2.6156327e-02   9.6741654e-02
 -5.1017600e-01   5.5435568e-02
  1.1986930e-01   9.5015481e-02
 -3.5573003e-01   8.6285569e-02
 -1.2768345e-01   9.0957284e-02
  7.5630486e-01   8.3142221e-02
  3.3934763e-01   8.3915450e-02
  1.6134225e-02   8.6541742e-02
 -1.7639892e-01   9.9626511e-02
 -2.4296452e-01   8.3524697e-02
 -1.8965062e-01   6.8861715e-02
  4.5285624e-01   7.6450728e-02
  5.6657031e-02   9.0826064e-02
  2.1661714e-01   8.6293221e-02
  7.3643953e-01   9.8219797e-02
  5.0727540e-01   8.4541932e-02
 -4.5448625e-01   9.5011532e-02
  2.8548580e-01   9.4982415e-02
 -2.8511050e-01   8.1178062e-02
 -4.8940277e-01   9.6989386e-02
 -2.5940126e-01   9.4731636e-02
 -5.2365568e-02   8.4989563e-02
  6.3910103e-01   9.9758863e-02
 -4.1627988e-01   8.0014147e-02
 -3.2128552e-01   9.3749262e-02
  6.5390156e-03   9.3775660e-02
  5.0548726e-01   9.7939253e-02
  8.9133573e-01   8.2362898e-02
  4.2343874e-02   8.8393159e-02
 -9.4623214e-01   8.6164810e-02
  7.1821165e-01   6.7331485e-02
  3.4017542e-01   7.1599931e-02
 -1.1139047e-01   8.7716706e-02
  1.7870997e-01   8.0770016e-02
 -1.1331535e-01   7.4915133e-02
  9.2636198e-02   9.1366738e-02
 -6.4862803e-02   7.0408128e-02
  2.3063649e-01   8.0873750e-02
 -7.8858191e-01   9.8302804e-02
 -3.7509108e-01   8.0427662e-02
  7.7801824e-02   8.2669705e-02
 -2.9477012e-01   9.3198687e-02
  4.2448524e-01   7.8471333e-02
 -8.4065932e-01   6.1583385e-02
 -1.8729858e-01   9.0912201e-02
 -1.1313531e-01   9.6000850e-02
  2.4981126e-01   7.2811209e-02
 -2.1713692e-01   9.7066030e-02
  4.3410134e-02   8.2400367e-02
 -9.2396788e-02   9.3709648e-02
 -1.6495347e-01   9.9292748e-02
 -3.6613929e-01   9.5033765e-02
 -1.4147455e-01   8.6275771e-02
 -4.3697974e-01   8.9945748e-02
 -8.4273046e-01   6.9065809e-02
 -3.8720918e-01   6.3353688e-02
 -3.0427065e-01   7.7187918e-02
  2.4795305e-02   8.4977709e-02
  4.2628226e-01   6.5812744e-02
 -1.1356905e-01   9.1217786e-02
 -5.3819031e-01   9.9158578e-02
  6.3538976e-02   8.4539391e-02
  1.4727500e-01   9.0869725e-02
 -1.7668982e-01   8.0780312e-02
  8.5399371e-01   9.8306276e-02
 -3.9897701e-01   9.7733080e-02
  1.7390794e-01   7.4964993e-02
  1.7495240e-01   8.9021504e-02
  3.9508846e-01   8.1668429e-02
  7.8574263e-02   8.0188841e-02
 -6.0307556e-01   9.0051129e-02
 -3.0600876e-01   9.1689341e-02
 -8.5021687e-01   8.4497131e-02
 -5.4356664e-01   8.3731540e-02
  2.1047620e-01   7.8382306e-02
  4.9672782e-01   8.5177861e-02
  1.2515420e-01   9.3850426e-02
 -1.8736888e-01   9.8570772e-02
  5.4981673e-01   8.4047757e-02
  3.5443362e-03   7.7063516e-02
  1.4829522e-01   7.2552495e-02
 -3.1992191e-01   8.9231238e-02
  8.6764407e-01   8.9171074e-02
 -6.1400872e-01   8.2880728e-02
 -2.2738405e-01   7.9818584e-02