phonopy:
  version: "2.21.0"
  frequency_unit_conversion_factor: 15.633302
  symmetry_tolerance: 1.00000e-02

space_group:
  type: "Fm-3m"
  number: 225
  Hall_symbol: "-F 4 2 3"

primitive_matrix:
- [  0.000000000000000,  0.500000000000000,  0.500000000000000 ]
- [  0.500000000000000,  0.000000000000000,  0.500000000000000 ]
- [  0.500000000000000,  0.500000000000000,  0.000000000000000 ]

supercell_matrix:
- [   2,   0,   0 ]
- [   0,   2,   0 ]
- [   0,   0,   2 ]

primitive_cell:
  lattice:
  - [     0.000000000000000,     2.530509572319245,     2.530509572319245 ] # a
  - [     2.530509572319245,     0.000000000000000,     2.530509572319245 ] # b
  - [     2.530509572319245,     2.530509572319245,     0.000000000000000 ] # c
  points:
  - symbol: Li # 1
    coordinates: [  0.000000000000000,  0.000000000000000,  0.000000000000000 ]
    mass: 6.941000
  - symbol: Cl # 2
    coordinates: [  0.500000000000000,  0.500000000000000,  0.500000000000000 ]
    mass: 35.453000
  reciprocal_lattice: # without 2pi
  - [    -0.197588661773661,     0.197588661773661,     0.197588661773661 ] # a*
  - [     0.197588661773661,    -0.197588661773662,     0.197588661773661 ] # b*
  - [     0.197588661773661,     0.197588661773661,    -0.197588661773661 ] # c*

unit_cell:
  lattice:
  - [     5.061019144638489,    -0.000000000000000,     0.000000000000000 ] # a
  - [     0.000000000000001,     5.061019144638489,     0.000000000000000 ] # b
  - [     0.000000000000000,    -0.000000000000000,     5.061019144638489 ] # c
  points:
  - symbol: Li # 1
    coordinates: [  0.000000000000000,  0.000000000000000,  0.000000000000000 ]
    mass: 6.941000
    reduced_to: 1
  - symbol: Li # 2
    coordinates: [  0.000000000000000,  0.500000000000000,  0.500000000000000 ]
    mass: 6.941000
    reduced_to: 1
  - symbol: Li # 3
    coordinates: [  0.500000000000000,  0.000000000000000,  0.500000000000000 ]
    mass: 6.941000
    reduced_to: 1
  - symbol: Li # 4
    coordinates: [  0.500000000000000,  0.500000000000000,  0.000000000000000 ]
    mass: 6.941000
    reduced_to: 1
  - symbol: Cl # 5
    coordinates: [  0.500000000000000,  0.000000000000000,  0.000000000000000 ]
    mass: 35.453000
    reduced_to: 5
  - symbol: Cl # 6
    coordinates: [  0.500000000000000,  0.500000000000000,  0.500000000000000 ]
    mass: 35.453000
    reduced_to: 5
  - symbol: Cl # 7
    coordinates: [  0.000000000000000,  0.000000000000000,  0.500000000000000 ]
    mass: 35.453000
    reduced_to: 5
  - symbol: Cl # 8
    coordinates: [  0.000000000000000,  0.500000000000000,  0.000000000000000 ]
    mass: 35.453000
    reduced_to: 5

supercell:
  lattice:
  - [    10.122038289276977,     0.000000000000000,     0.000000000000001 ] # a
  - [     0.000000000000002,    10.122038289276977,     0.000000000000001 ] # b
  - [     0.000000000000000,     0.000000000000000,    10.122038289276977 ] # c
  points:
  - symbol: Li # 1
    coordinates: [  0.000000000000000,  0.000000000000000,  0.000000000000000 ]
    mass: 6.941000
    reduced_to: 1
  - symbol: Li # 2
    coordinates: [  0.500000000000000,  0.000000000000000,  0.000000000000000 ]
    mass: 6.941000
    reduced_to: 1
  - symbol: Li # 3
    coordinates: [  0.000000000000000,  0.500000000000000,  0.000000000000000 ]
    mass: 6.941000
    reduced_to: 1
  - symbol: Li # 4
    coordinates: [  0.500000000000000,  0.500000000000000,  0.000000000000000 ]
    mass: 6.941000
    reduced_to: 1
  - symbol: Li # 5
    coordinates: [  0.000000000000000,  0.000000000000000,  0.500000000000000 ]
    mass: 6.941000
    reduced_to: 1
  - symbol: Li # 6
    coordinates: [  0.500000000000000,  0.000000000000000,  0.500000000000000 ]
    mass: 6.941000
    reduced_to: 1
  - symbol: Li # 7
    coordinates: [  0.000000000000000,  0.500000000000000,  0.500000000000000 ]
    mass: 6.941000
    reduced_to: 1
  - symbol: Li # 8
    coordinates: [  0.500000000000000,  0.500000000000000,  0.500000000000000 ]
    mass: 6.941000
    reduced_to: 1
  - symbol: Li # 9
    coordinates: [  0.000000000000000,  0.250000000000000,  0.250000000000000 ]
    mass: 6.941000
    reduced_to: 1
  - symbol: Li # 10
    coordinates: [  0.500000000000000,  0.250000000000000,  0.250000000000000 ]
    mass: 6.941000
    reduced_to: 1
  - symbol: Li # 11
    coordinates: [  0.000000000000000,  0.750000000000000,  0.250000000000000 ]
    mass: 6.941000
    reduced_to: 1
  - symbol: Li # 12
    coordinates: [  0.500000000000000,  0.750000000000000,  0.250000000000000 ]
    mass: 6.941000
    reduced_to: 1
  - symbol: Li # 13
    coordinates: [  0.000000000000000,  0.250000000000000,  0.750000000000000 ]
    mass: 6.941000
    reduced_to: 1
  - symbol: Li # 14
    coordinates: [  0.500000000000000,  0.250000000000000,  0.750000000000000 ]
    mass: 6.941000
    reduced_to: 1
  - symbol: Li # 15
    coordinates: [  0.000000000000000,  0.750000000000000,  0.750000000000000 ]
    mass: 6.941000
    reduced_to: 1
  - symbol: Li # 16
    coordinates: [  0.500000000000000,  0.750000000000000,  0.750000000000000 ]
    mass: 6.941000
    reduced_to: 1
  - symbol: Li # 17
    coordinates: [  0.250000000000000,  0.000000000000000,  0.250000000000000 ]
    mass: 6.941000
    reduced_to: 1
  - symbol: Li # 18
    coordinates: [  0.750000000000000,  0.000000000000000,  0.250000000000000 ]
    mass: 6.941000
    reduced_to: 1
  - symbol: Li # 19
    coordinates: [  0.250000000000000,  0.500000000000000,  0.250000000000000 ]
    mass: 6.941000
    reduced_to: 1
  - symbol: Li # 20
    coordinates: [  0.750000000000000,  0.500000000000000,  0.250000000000000 ]
    mass: 6.941000
    reduced_to: 1
  - symbol: Li # 21
    coordinates: [  0.250000000000000,  0.000000000000000,  0.750000000000000 ]
    mass: 6.941000
    reduced_to: 1
  - symbol: Li # 22
    coordinates: [  0.750000000000000,  0.000000000000000,  0.750000000000000 ]
    mass: 6.941000
    reduced_to: 1
  - symbol: Li # 23
    coordinates: [  0.250000000000000,  0.500000000000000,  0.750000000000000 ]
    mass: 6.941000
    reduced_to: 1
  - symbol: Li # 24
    coordinates: [  0.750000000000000,  0.500000000000000,  0.750000000000000 ]
    mass: 6.941000
    reduced_to: 1
  - symbol: Li # 25
    coordinates: [  0.250000000000000,  0.250000000000000,  0.000000000000000 ]
    mass: 6.941000
    reduced_to: 1
  - symbol: Li # 26
    coordinates: [  0.750000000000000,  0.250000000000000,  0.000000000000000 ]
    mass: 6.941000
    reduced_to: 1
  - symbol: Li # 27
    coordinates: [  0.250000000000000,  0.750000000000000,  0.000000000000000 ]
    mass: 6.941000
    reduced_to: 1
  - symbol: Li # 28
    coordinates: [  0.750000000000000,  0.750000000000000,  0.000000000000000 ]
    mass: 6.941000
    reduced_to: 1
  - symbol: Li # 29
    coordinates: [  0.250000000000000,  0.250000000000000,  0.500000000000000 ]
    mass: 6.941000
    reduced_to: 1
  - symbol: Li # 30
    coordinates: [  0.750000000000000,  0.250000000000000,  0.500000000000000 ]
    mass: 6.941000
    reduced_to: 1
  - symbol: Li # 31
    coordinates: [  0.250000000000000,  0.750000000000000,  0.500000000000000 ]
    mass: 6.941000
    reduced_to: 1
  - symbol: Li # 32
    coordinates: [  0.750000000000000,  0.750000000000000,  0.500000000000000 ]
    mass: 6.941000
    reduced_to: 1
  - symbol: Cl # 33
    coordinates: [  0.250000000000000,  0.000000000000000,  0.000000000000000 ]
    mass: 35.453000
    reduced_to: 33
  - symbol: Cl # 34
    coordinates: [  0.750000000000000,  0.000000000000000,  0.000000000000000 ]
    mass: 35.453000
    reduced_to: 33
  - symbol: Cl # 35
    coordinates: [  0.250000000000000,  0.500000000000000,  0.000000000000000 ]
    mass: 35.453000
    reduced_to: 33
  - symbol: Cl # 36
    coordinates: [  0.750000000000000,  0.500000000000000,  0.000000000000000 ]
    mass: 35.453000
    reduced_to: 33
  - symbol: Cl # 37
    coordinates: [  0.250000000000000,  0.000000000000000,  0.500000000000000 ]
    mass: 35.453000
    reduced_to: 33
  - symbol: Cl # 38
    coordinates: [  0.750000000000000,  0.000000000000000,  0.500000000000000 ]
    mass: 35.453000
    reduced_to: 33
  - symbol: Cl # 39
    coordinates: [  0.250000000000000,  0.500000000000000,  0.500000000000000 ]
    mass: 35.453000
    reduced_to: 33
  - symbol: Cl # 40
    coordinates: [  0.750000000000000,  0.500000000000000,  0.500000000000000 ]
    mass: 35.453000
    reduced_to: 33
  - symbol: Cl # 41
    coordinates: [  0.250000000000000,  0.250000000000000,  0.250000000000000 ]
    mass: 35.453000
    reduced_to: 33
  - symbol: Cl # 42
    coordinates: [  0.750000000000000,  0.250000000000000,  0.250000000000000 ]
    mass: 35.453000
    reduced_to: 33
  - symbol: Cl # 43
    coordinates: [  0.250000000000000,  0.750000000000000,  0.250000000000000 ]
    mass: 35.453000
    reduced_to: 33
  - symbol: Cl # 44
    coordinates: [  0.750000000000000,  0.750000000000000,  0.250000000000000 ]
    mass: 35.453000
    reduced_to: 33
  - symbol: Cl # 45
    coordinates: [  0.250000000000000,  0.250000000000000,  0.750000000000000 ]
    mass: 35.453000
    reduced_to: 33
  - symbol: Cl # 46
    coordinates: [  0.750000000000000,  0.250000000000000,  0.750000000000000 ]
    mass: 35.453000
    reduced_to: 33
  - symbol: Cl # 47
    coordinates: [  0.250000000000000,  0.750000000000000,  0.750000000000000 ]
    mass: 35.453000
    reduced_to: 33
  - symbol: Cl # 48
    coordinates: [  0.750000000000000,  0.750000000000000,  0.750000000000000 ]
    mass: 35.453000
    reduced_to: 33
  - symbol: Cl # 49
    coordinates: [  0.000000000000000,  0.000000000000000,  0.250000000000000 ]
    mass: 35.453000
    reduced_to: 33
  - symbol: Cl # 50
    coordinates: [  0.500000000000000,  0.000000000000000,  0.250000000000000 ]
    mass: 35.453000
    reduced_to: 33
  - symbol: Cl # 51
    coordinates: [  0.000000000000000,  0.500000000000000,  0.250000000000000 ]
    mass: 35.453000
    reduced_to: 33
  - symbol: Cl # 52
    coordinates: [  0.500000000000000,  0.500000000000000,  0.250000000000000 ]
    mass: 35.453000
    reduced_to: 33
  - symbol: Cl # 53
    coordinates: [  0.000000000000000,  0.000000000000000,  0.750000000000000 ]
    mass: 35.453000
    reduced_to: 33
  - symbol: Cl # 54
    coordinates: [  0.500000000000000,  0.000000000000000,  0.750000000000000 ]
    mass: 35.453000
    reduced_to: 33
  - symbol: Cl # 55
    coordinates: [  0.000000000000000,  0.500000000000000,  0.750000000000000 ]
    mass: 35.453000
    reduced_to: 33
  - symbol: Cl # 56
    coordinates: [  0.500000000000000,  0.500000000000000,  0.750000000000000 ]
    mass: 35.453000
    reduced_to: 33
  - symbol: Cl # 57
    coordinates: [  0.000000000000000,  0.250000000000000,  0.000000000000000 ]
    mass: 35.453000
    reduced_to: 33
  - symbol: Cl # 58
    coordinates: [  0.500000000000000,  0.250000000000000,  0.000000000000000 ]
    mass: 35.453000
    reduced_to: 33
  - symbol: Cl # 59
    coordinates: [  0.000000000000000,  0.750000000000000,  0.000000000000000 ]
    mass: 35.453000
    reduced_to: 33
  - symbol: Cl # 60
    coordinates: [  0.500000000000000,  0.750000000000000,  0.000000000000000 ]
    mass: 35.453000
    reduced_to: 33
  - symbol: Cl # 61
    coordinates: [  0.000000000000000,  0.250000000000000,  0.500000000000000 ]
    mass: 35.453000
    reduced_to: 33
  - symbol: Cl # 62
    coordinates: [  0.500000000000000,  0.250000000000000,  0.500000000000000 ]
    mass: 35.453000
    reduced_to: 33
  - symbol: Cl # 63
    coordinates: [  0.000000000000000,  0.750000000000000,  0.500000000000000 ]
    mass: 35.453000
    reduced_to: 33
  - symbol: Cl # 64
    coordinates: [  0.500000000000000,  0.750000000000000,  0.500000000000000 ]
    mass: 35.453000
    reduced_to: 33

displacements:
- atom:    1
  displacement:
    [   0.0100000000000000,  0.0000000000000000,  0.0000000000000000 ]
  forces:
  - [  -0.0158050000000000, -0.0000000000000000, -0.0000000000000000 ]
  - [   0.0048210000000000, -0.0000000000000000,  0.0000000000000000 ]
  - [   0.0002004200000000, -0.0000000000000000,  0.0000000000000000 ]
  - [   0.0000046900000000, -0.0000000000000000, -0.0000000000000000 ]
  - [   0.0002004200000000, -0.0000000000000000,  0.0000000000000000 ]
  - [   0.0000046900000000, -0.0000000000000000, -0.0000000000000000 ]
  - [  -0.0001903100000000, -0.0000000000000000, -0.0000000000000000 ]
  - [   0.0001706500000000, -0.0000000000000000,  0.0000000000000000 ]
  - [  -0.0005477200000000, -0.0000009500000000, -0.0000009500000000 ]
  - [   0.0004287200000000,  0.0000016200000000,  0.0000016200000000 ]
  - [  -0.0005477200000000,  0.0000009500000000, -0.0000009500000000 ]
  - [   0.0004287200000000, -0.0000016200000000,  0.0000016200000000 ]
  - [  -0.0005477200000000, -0.0000009500000000,  0.0000009500000000 ]
  - [   0.0004287200000000,  0.0000016200000000, -0.0000016200000000 ]
  - [  -0.0005477200000000,  0.0000009500000000,  0.0000009500000000 ]
  - [   0.0004287200000000, -0.0000016200000000, -0.0000016200000000 ]
  - [   0.0003223200000000, -0.0000000000000000,  0.0024537500000000 ]
  - [   0.0003266000000000, -0.0000000000000000, -0.0024326800000000 ]
  - [  -0.0000136200000000, -0.0000000000000000, -0.0000821200000000 ]
  - [  -0.0000085500000000, -0.0000000000000000,  0.0000815400000000 ]
  - [   0.0003223200000000, -0.0000000000000000, -0.0024537500000000 ]
  - [   0.0003266000000000, -0.0000000000000000,  0.0024326800000000 ]
  - [  -0.0000136200000000, -0.0000000000000000,  0.0000821200000000 ]
  - [  -0.0000085500000000, -0.0000000000000000, -0.0000815400000000 ]
  - [   0.0003223200000000,  0.0024537500000000,  0.0000000000000000 ]
  - [   0.0003266000000000, -0.0024326800000000, -0.0000000000000000 ]
  - [   0.0003223200000000, -0.0024537500000000, -0.0000000000000000 ]
  - [   0.0003266000000000,  0.0024326800000000,  0.0000000000000000 ]
  - [  -0.0000136200000000, -0.0000821200000000, -0.0000000000000000 ]
  - [  -0.0000085500000000,  0.0000815400000000,  0.0000000000000000 ]
  - [  -0.0000136200000000,  0.0000821200000000,  0.0000000000000000 ]
  - [  -0.0000085500000000, -0.0000815400000000, -0.0000000000000000 ]
  - [   0.0032429600000000, -0.0000000000000000,  0.0000000000000000 ]
  - [   0.0028096600000000, -0.0000000000000000,  0.0000000000000000 ]
  - [   0.0001289400000000, -0.0000000000000000,  0.0000000000000000 ]
  - [   0.0001315800000000, -0.0000000000000000,  0.0000000000000000 ]
  - [   0.0001289400000000, -0.0000000000000000,  0.0000000000000000 ]
  - [   0.0001315800000000, -0.0000000000000000,  0.0000000000000000 ]
  - [  -0.0000179300000000, -0.0000000000000000, -0.0000000000000000 ]
  - [   0.0000060100000000, -0.0000000000000000, -0.0000000000000000 ]
  - [  -0.0000327100000000, -0.0004874000000000, -0.0004874000000000 ]
  - [  -0.0000274000000000,  0.0004985300000000,  0.0004985300000000 ]
  - [  -0.0000327100000000,  0.0004874000000000, -0.0004874000000000 ]
  - [  -0.0000274000000000, -0.0004985300000000,  0.0004985300000000 ]
  - [  -0.0000327100000000, -0.0004874000000000,  0.0004874000000000 ]
  - [  -0.0000274000000000,  0.0004985300000000, -0.0004985300000000 ]
  - [  -0.0000327100000000,  0.0004874000000000,  0.0004874000000000 ]
  - [  -0.0000274000000000, -0.0004985300000000, -0.0004985300000000 ]
  - [   0.0018842500000000, -0.0000000000000000, -0.0000052400000000 ]
  - [  -0.0012804600000000, -0.0000000000000000,  0.0000025900000000 ]
  - [   0.0002019700000000, -0.0000000000000000,  0.0000130100000000 ]
  - [  -0.0002454900000000, -0.0000000000000000,  0.0000055400000000 ]
  - [   0.0018842500000000, -0.0000000000000000,  0.0000052400000000 ]
  - [  -0.0012804600000000, -0.0000000000000000, -0.0000025900000000 ]
  - [   0.0002019700000000, -0.0000000000000000, -0.0000130100000000 ]
  - [  -0.0002454900000000, -0.0000000000000000, -0.0000055400000000 ]
  - [   0.0018842500000000, -0.0000052400000000,  0.0000000000000000 ]
  - [  -0.0012804600000000,  0.0000025900000000, -0.0000000000000000 ]
  - [   0.0018842500000000,  0.0000052400000000,  0.0000000000000000 ]
  - [  -0.0012804600000000, -0.0000025900000000, -0.0000000000000000 ]
  - [   0.0002019700000000,  0.0000130100000000,  0.0000000000000000 ]
  - [  -0.0002454900000000,  0.0000055400000000, -0.0000000000000000 ]
  - [   0.0002019700000000, -0.0000130100000000,  0.0000000000000000 ]
  - [  -0.0002454900000000, -0.0000055400000000, -0.0000000000000000 ]
- atom:   33
  displacement:
    [   0.0100000000000000,  0.0000000000000000,  0.0000000000000000 ]
  forces:
  - [   0.0028206800000000,  0.0000000000000000,  0.0000000000000000 ]
  - [   0.0032521000000000,  0.0000000000000000,  0.0000000000000000 ]
  - [   0.0001370700000000,  0.0000000000000000,  0.0000000000000000 ]
  - [   0.0001398300000000,  0.0000000000000000,  0.0000000000000000 ]
  - [   0.0001370700000000,  0.0000000000000000,  0.0000000000000000 ]
  - [   0.0001398300000000,  0.0000000000000000,  0.0000000000000000 ]
  - [   0.0000002300000000,  0.0000000000000000,  0.0000000000000000 ]
  - [   0.0000008700000000,  0.0000000000000000,  0.0000000000000000 ]
  - [  -0.0000279900000000,  0.0004923900000000,  0.0004923900000000 ]
  - [  -0.0000185500000000, -0.0004912600000000, -0.0004912600000000 ]
  - [  -0.0000279900000000, -0.0004923900000000,  0.0004923900000000 ]
  - [  -0.0000185500000000,  0.0004912600000000, -0.0004912600000000 ]
  - [  -0.0000279900000000,  0.0004923900000000, -0.0004923900000000 ]
  - [  -0.0000185500000000, -0.0004912600000000,  0.0004912600000000 ]
  - [  -0.0000279900000000, -0.0004923900000000, -0.0004923900000000 ]
  - [  -0.0000185500000000,  0.0004912600000000,  0.0004912600000000 ]
  - [   0.0018989600000000,  0.0000000000000000, -0.0000050500000000 ]
  - [  -0.0012792400000000,  0.0000000000000000, -0.0000017600000000 ]
  - [   0.0002210400000000,  0.0000000000000000, -0.0000011200000000 ]
  - [  -0.0002495800000000,  0.0000000000000000,  0.0000009000000000 ]
  - [   0.0018989600000000,  0.0000000000000000,  0.0000050500000000 ]
  - [  -0.0012792400000000,  0.0000000000000000,  0.0000017600000000 ]
  - [   0.0002210400000000,  0.0000000000000000,  0.0000011200000000 ]
  - [  -0.0002495800000000,  0.0000000000000000, -0.0000009000000000 ]
  - [   0.0018989600000000, -0.0000050500000000,  0.0000000000000000 ]
  - [  -0.0012792400000000, -0.0000017600000000, -0.0000000000000000 ]
  - [   0.0018989600000000,  0.0000050500000000,  0.0000000000000000 ]
  - [  -0.0012792400000000,  0.0000017600000000, -0.0000000000000000 ]
  - [   0.0002210400000000, -0.0000011200000000,  0.0000000000000000 ]
  - [  -0.0002495800000000,  0.0000009000000000, -0.0000000000000000 ]
  - [   0.0002210400000000,  0.0000011200000000,  0.0000000000000000 ]
  - [  -0.0002495800000000, -0.0000009000000000, -0.0000000000000000 ]
  - [  -0.0308795900000000,  0.0000000000000000, -0.0000000000000000 ]
  - [   0.0018046800000000,  0.0000000000000000,  0.0000000000000000 ]
  - [  -0.0006271500000000,  0.0000000000000000, -0.0000000000000000 ]
  - [   0.0010499000000000,  0.0000000000000000,  0.0000000000000000 ]
  - [  -0.0006271500000000,  0.0000000000000000, -0.0000000000000000 ]
  - [   0.0010499000000000,  0.0000000000000000,  0.0000000000000000 ]
  - [  -0.0001716500000000,  0.0000000000000000, -0.0000000000000000 ]
  - [   0.0002325100000000,  0.0000000000000000,  0.0000000000000000 ]
  - [  -0.0009893300000000,  0.0000012900000000,  0.0000012900000000 ]
  - [   0.0006388600000000,  0.0000068400000000,  0.0000068400000000 ]
  - [  -0.0009893300000000, -0.0000012900000000,  0.0000012900000000 ]
  - [   0.0006388600000000, -0.0000068400000000,  0.0000068400000000 ]
  - [  -0.0009893300000000,  0.0000012900000000, -0.0000012900000000 ]
  - [   0.0006388600000000,  0.0000068400000000, -0.0000068400000000 ]
  - [  -0.0009893300000000, -0.0000012900000000, -0.0000012900000000 ]
  - [   0.0006388600000000, -0.0000068400000000, -0.0000068400000000 ]
  - [   0.0025884300000000,  0.0000000000000000, -0.0033905400000000 ]
  - [   0.0026121100000000,  0.0000000000000000,  0.0034442600000000 ]
  - [  -0.0000050100000000,  0.0000000000000000, -0.0002581300000000 ]
  - [  -0.0000044800000000,  0.0000000000000000,  0.0002763500000000 ]
  - [   0.0025884300000000,  0.0000000000000000,  0.0033905400000000 ]
  - [   0.0026121100000000,  0.0000000000000000, -0.0034442600000000 ]
  - [  -0.0000050100000000,  0.0000000000000000,  0.0002581300000000 ]
  - [  -0.0000044800000000,  0.0000000000000000, -0.0002763500000000 ]
  - [   0.0025884300000000, -0.0033905400000000, -0.0000000000000000 ]
  - [   0.0026121100000000,  0.0034442600000000,  0.0000000000000000 ]
  - [   0.0025884300000000,  0.0033905400000000,  0.0000000000000000 ]
  - [   0.0026121100000000, -0.0034442600000000, -0.0000000000000000 ]
  - [  -0.0000050100000000, -0.0002581300000000, -0.0000000000000000 ]
  - [  -0.0000044800000000,  0.0002763500000000,  0.0000000000000000 ]
  - [  -0.0000050100000000,  0.0002581300000000,  0.0000000000000000 ]
  - [  -0.0000044800000000, -0.0002763500000000, -0.0000000000000000 ]
