phonopy:
  version: "2.23.1"
  frequency_unit_conversion_factor: 15.633302
  symmetry_tolerance: 1.00000e-04

space_group:
  type: "Fm-3m"
  number: 225
  Hall_symbol: "-F 4 2 3"

primitive_matrix:
- [ -0.000000000000000,  0.500000000000000,  0.500000000000000 ]
- [  0.500000000000000,  0.000000000000000,  0.500000000000000 ]
- [  0.500000000000000,  0.500000000000000,  0.000000000000000 ]

supercell_matrix:
- [   2,   0,   0 ]
- [   0,   2,   0 ]
- [   0,   0,   2 ]

primitive_cell:
  lattice:
  - [     0.000000000000000,     2.542122339049762,     2.542122339049762 ] # a
  - [     2.542122339049762,     0.000000000000000,     2.542122339049762 ] # b
  - [     2.542122339049762,     2.542122339049762,     0.000000000000000 ] # c
  points:
  - symbol: Li # 1
    coordinates: [  0.000000000000000,  0.000000000000000,  0.000000000000000 ]
    mass: 6.941000
  - symbol: Cl # 2
    coordinates: [  0.500000000000000,  0.500000000000000,  0.500000000000000 ]
    mass: 35.453000
  reciprocal_lattice: # without 2pi
  - [    -0.196686049416055,     0.196686049416055,     0.196686049416055 ] # a*
  - [     0.196686049416055,    -0.196686049416055,     0.196686049416055 ] # b*
  - [     0.196686049416055,     0.196686049416055,    -0.196686049416055 ] # c*

unit_cell:
  lattice:
  - [     5.084244678099525,     0.000000000000000,     0.000000000000000 ] # a
  - [     0.000000000000001,     5.084244678099525,     0.000000000000000 ] # b
  - [     0.000000000000000,     0.000000000000000,     5.084244678099525 ] # c
  points:
  - symbol: Li # 1
    coordinates: [  0.000000000000000,  0.000000000000000,  0.000000000000000 ]
    mass: 6.941000
    reduced_to: 1
  - symbol: Li # 2
    coordinates: [ -0.000000000000000,  0.500000000000000,  0.500000000000000 ]
    mass: 6.941000
    reduced_to: 1
  - symbol: Li # 3
    coordinates: [  0.500000000000000,  0.000000000000000,  0.500000000000000 ]
    mass: 6.941000
    reduced_to: 1
  - symbol: Li # 4
    coordinates: [  0.500000000000000,  0.500000000000000, -0.000000000000000 ]
    mass: 6.941000
    reduced_to: 1
  - symbol: Cl # 5
    coordinates: [  0.500000000000000,  0.000000000000000, -0.000000000000000 ]
    mass: 35.453000
    reduced_to: 5
  - symbol: Cl # 6
    coordinates: [  0.500000000000000,  0.500000000000000,  0.500000000000000 ]
    mass: 35.453000
    reduced_to: 5
  - symbol: Cl # 7
    coordinates: [  0.000000000000000,  0.000000000000000,  0.500000000000000 ]
    mass: 35.453000
    reduced_to: 5
  - symbol: Cl # 8
    coordinates: [ -0.000000000000000,  0.500000000000000, -0.000000000000000 ]
    mass: 35.453000
    reduced_to: 5

supercell:
  lattice:
  - [    10.168489356199050,     0.000000000000000,     0.000000000000001 ] # a
  - [     0.000000000000002,    10.168489356199050,     0.000000000000001 ] # b
  - [     0.000000000000000,     0.000000000000000,    10.168489356199050 ] # c
  points:
  - symbol: Li # 1
    coordinates: [  0.000000000000000,  0.000000000000000,  0.000000000000000 ]
    mass: 6.941000
    reduced_to: 1
  - symbol: Li # 2
    coordinates: [  0.500000000000000,  0.000000000000000,  0.000000000000000 ]
    mass: 6.941000
    reduced_to: 1
  - symbol: Li # 3
    coordinates: [  0.000000000000000,  0.500000000000000,  0.000000000000000 ]
    mass: 6.941000
    reduced_to: 1
  - symbol: Li # 4
    coordinates: [  0.500000000000000,  0.500000000000000,  0.000000000000000 ]
    mass: 6.941000
    reduced_to: 1
  - symbol: Li # 5
    coordinates: [  0.000000000000000,  0.000000000000000,  0.500000000000000 ]
    mass: 6.941000
    reduced_to: 1
  - symbol: Li # 6
    coordinates: [  0.500000000000000,  0.000000000000000,  0.500000000000000 ]
    mass: 6.941000
    reduced_to: 1
  - symbol: Li # 7
    coordinates: [  0.000000000000000,  0.500000000000000,  0.500000000000000 ]
    mass: 6.941000
    reduced_to: 1
  - symbol: Li # 8
    coordinates: [  0.500000000000000,  0.500000000000000,  0.500000000000000 ]
    mass: 6.941000
    reduced_to: 1
  - symbol: Li # 9
    coordinates: [  1.000000000000000,  0.250000000000000,  0.250000000000000 ]
    mass: 6.941000
    reduced_to: 1
  - symbol: Li # 10
    coordinates: [  0.500000000000000,  0.250000000000000,  0.250000000000000 ]
    mass: 6.941000
    reduced_to: 1
  - symbol: Li # 11
    coordinates: [  1.000000000000000,  0.750000000000000,  0.250000000000000 ]
    mass: 6.941000
    reduced_to: 1
  - symbol: Li # 12
    coordinates: [  0.500000000000000,  0.750000000000000,  0.250000000000000 ]
    mass: 6.941000
    reduced_to: 1
  - symbol: Li # 13
    coordinates: [  1.000000000000000,  0.250000000000000,  0.750000000000000 ]
    mass: 6.941000
    reduced_to: 1
  - symbol: Li # 14
    coordinates: [  0.500000000000000,  0.250000000000000,  0.750000000000000 ]
    mass: 6.941000
    reduced_to: 1
  - symbol: Li # 15
    coordinates: [  1.000000000000000,  0.750000000000000,  0.750000000000000 ]
    mass: 6.941000
    reduced_to: 1
  - symbol: Li # 16
    coordinates: [  0.500000000000000,  0.750000000000000,  0.750000000000000 ]
    mass: 6.941000
    reduced_to: 1
  - symbol: Li # 17
    coordinates: [  0.250000000000000,  0.000000000000000,  0.250000000000000 ]
    mass: 6.941000
    reduced_to: 1
  - symbol: Li # 18
    coordinates: [  0.750000000000000,  0.000000000000000,  0.250000000000000 ]
    mass: 6.941000
    reduced_to: 1
  - symbol: Li # 19
    coordinates: [  0.250000000000000,  0.500000000000000,  0.250000000000000 ]
    mass: 6.941000
    reduced_to: 1
  - symbol: Li # 20
    coordinates: [  0.750000000000000,  0.500000000000000,  0.250000000000000 ]
    mass: 6.941000
    reduced_to: 1
  - symbol: Li # 21
    coordinates: [  0.250000000000000,  0.000000000000000,  0.750000000000000 ]
    mass: 6.941000
    reduced_to: 1
  - symbol: Li # 22
    coordinates: [  0.750000000000000,  0.000000000000000,  0.750000000000000 ]
    mass: 6.941000
    reduced_to: 1
  - symbol: Li # 23
    coordinates: [  0.250000000000000,  0.500000000000000,  0.750000000000000 ]
    mass: 6.941000
    reduced_to: 1
  - symbol: Li # 24
    coordinates: [  0.750000000000000,  0.500000000000000,  0.750000000000000 ]
    mass: 6.941000
    reduced_to: 1
  - symbol: Li # 25
    coordinates: [  0.250000000000000,  0.250000000000000,  1.000000000000000 ]
    mass: 6.941000
    reduced_to: 1
  - symbol: Li # 26
    coordinates: [  0.750000000000000,  0.250000000000000,  1.000000000000000 ]
    mass: 6.941000
    reduced_to: 1
  - symbol: Li # 27
    coordinates: [  0.250000000000000,  0.750000000000000,  1.000000000000000 ]
    mass: 6.941000
    reduced_to: 1
  - symbol: Li # 28
    coordinates: [  0.750000000000000,  0.750000000000000,  1.000000000000000 ]
    mass: 6.941000
    reduced_to: 1
  - symbol: Li # 29
    coordinates: [  0.250000000000000,  0.250000000000000,  0.500000000000000 ]
    mass: 6.941000
    reduced_to: 1
  - symbol: Li # 30
    coordinates: [  0.750000000000000,  0.250000000000000,  0.500000000000000 ]
    mass: 6.941000
    reduced_to: 1
  - symbol: Li # 31
    coordinates: [  0.250000000000000,  0.750000000000000,  0.500000000000000 ]
    mass: 6.941000
    reduced_to: 1
  - symbol: Li # 32
    coordinates: [  0.750000000000000,  0.750000000000000,  0.500000000000000 ]
    mass: 6.941000
    reduced_to: 1
  - symbol: Cl # 33
    coordinates: [  0.250000000000000,  0.000000000000000,  1.000000000000000 ]
    mass: 35.453000
    reduced_to: 33
  - symbol: Cl # 34
    coordinates: [  0.750000000000000,  0.000000000000000,  1.000000000000000 ]
    mass: 35.453000
    reduced_to: 33
  - symbol: Cl # 35
    coordinates: [  0.250000000000000,  0.500000000000000,  1.000000000000000 ]
    mass: 35.453000
    reduced_to: 33
  - symbol: Cl # 36
    coordinates: [  0.750000000000000,  0.500000000000000,  1.000000000000000 ]
    mass: 35.453000
    reduced_to: 33
  - symbol: Cl # 37
    coordinates: [  0.250000000000000,  0.000000000000000,  0.500000000000000 ]
    mass: 35.453000
    reduced_to: 33
  - symbol: Cl # 38
    coordinates: [  0.750000000000000,  0.000000000000000,  0.500000000000000 ]
    mass: 35.453000
    reduced_to: 33
  - symbol: Cl # 39
    coordinates: [  0.250000000000000,  0.500000000000000,  0.500000000000000 ]
    mass: 35.453000
    reduced_to: 33
  - symbol: Cl # 40
    coordinates: [  0.750000000000000,  0.500000000000000,  0.500000000000000 ]
    mass: 35.453000
    reduced_to: 33
  - symbol: Cl # 41
    coordinates: [  0.250000000000000,  0.250000000000000,  0.250000000000000 ]
    mass: 35.453000
    reduced_to: 33
  - symbol: Cl # 42
    coordinates: [  0.750000000000000,  0.250000000000000,  0.250000000000000 ]
    mass: 35.453000
    reduced_to: 33
  - symbol: Cl # 43
    coordinates: [  0.250000000000000,  0.750000000000000,  0.250000000000000 ]
    mass: 35.453000
    reduced_to: 33
  - symbol: Cl # 44
    coordinates: [  0.750000000000000,  0.750000000000000,  0.250000000000000 ]
    mass: 35.453000
    reduced_to: 33
  - symbol: Cl # 45
    coordinates: [  0.250000000000000,  0.250000000000000,  0.750000000000000 ]
    mass: 35.453000
    reduced_to: 33
  - symbol: Cl # 46
    coordinates: [  0.750000000000000,  0.250000000000000,  0.750000000000000 ]
    mass: 35.453000
    reduced_to: 33
  - symbol: Cl # 47
    coordinates: [  0.250000000000000,  0.750000000000000,  0.750000000000000 ]
    mass: 35.453000
    reduced_to: 33
  - symbol: Cl # 48
    coordinates: [  0.750000000000000,  0.750000000000000,  0.750000000000000 ]
    mass: 35.453000
    reduced_to: 33
  - symbol: Cl # 49
    coordinates: [  0.000000000000000,  0.000000000000000,  0.250000000000000 ]
    mass: 35.453000
    reduced_to: 33
  - symbol: Cl # 50
    coordinates: [  0.500000000000000,  0.000000000000000,  0.250000000000000 ]
    mass: 35.453000
    reduced_to: 33
  - symbol: Cl # 51
    coordinates: [  0.000000000000000,  0.500000000000000,  0.250000000000000 ]
    mass: 35.453000
    reduced_to: 33
  - symbol: Cl # 52
    coordinates: [  0.500000000000000,  0.500000000000000,  0.250000000000000 ]
    mass: 35.453000
    reduced_to: 33
  - symbol: Cl # 53
    coordinates: [  0.000000000000000,  0.000000000000000,  0.750000000000000 ]
    mass: 35.453000
    reduced_to: 33
  - symbol: Cl # 54
    coordinates: [  0.500000000000000,  0.000000000000000,  0.750000000000000 ]
    mass: 35.453000
    reduced_to: 33
  - symbol: Cl # 55
    coordinates: [  0.000000000000000,  0.500000000000000,  0.750000000000000 ]
    mass: 35.453000
    reduced_to: 33
  - symbol: Cl # 56
    coordinates: [  0.500000000000000,  0.500000000000000,  0.750000000000000 ]
    mass: 35.453000
    reduced_to: 33
  - symbol: Cl # 57
    coordinates: [  1.000000000000000,  0.250000000000000,  1.000000000000000 ]
    mass: 35.453000
    reduced_to: 33
  - symbol: Cl # 58
    coordinates: [  0.500000000000000,  0.250000000000000,  1.000000000000000 ]
    mass: 35.453000
    reduced_to: 33
  - symbol: Cl # 59
    coordinates: [  1.000000000000000,  0.750000000000000,  1.000000000000000 ]
    mass: 35.453000
    reduced_to: 33
  - symbol: Cl # 60
    coordinates: [  0.500000000000000,  0.750000000000000,  1.000000000000000 ]
    mass: 35.453000
    reduced_to: 33
  - symbol: Cl # 61
    coordinates: [  1.000000000000000,  0.250000000000000,  0.500000000000000 ]
    mass: 35.453000
    reduced_to: 33
  - symbol: Cl # 62
    coordinates: [  0.500000000000000,  0.250000000000000,  0.500000000000000 ]
    mass: 35.453000
    reduced_to: 33
  - symbol: Cl # 63
    coordinates: [  1.000000000000000,  0.750000000000000,  0.500000000000000 ]
    mass: 35.453000
    reduced_to: 33
  - symbol: Cl # 64
    coordinates: [  0.500000000000000,  0.750000000000000,  0.500000000000000 ]
    mass: 35.453000
    reduced_to: 33

displacements:
- atom:    1
  displacement:
    [   0.0100000000000000,  0.0000000000000000,  0.0000000000000000 ]
  forces:
  - [  -0.0151569932069367,  0.0000000000000021,  0.0000000000000347 ]
  - [  -0.0000000000000245,  0.0000000000000156,  0.0000000000003670 ]
  - [   0.0000000000000960, -0.0000000000000500,  0.0000000000001859 ]
  - [  -0.0000000000001268, -0.0000000000000199, -0.0000000000000720 ]
  - [   0.0000000000000372, -0.0000000000000316,  0.0000000000001678 ]
  - [   0.0000000000001614, -0.0000000000001085, -0.0000000000000777 ]
  - [  -0.0000000000002243, -0.0000000000000907, -0.0000000000002058 ]
  - [  -0.0000000000001457,  0.0000000000000273, -0.0000000000000493 ]
  - [  -0.0012295741475641, -0.0000043052677502, -0.0000043052678059 ]
  - [  -0.0000000000001557, -0.0000000000004846, -0.0000000000000216 ]
  - [  -0.0012295741476182,  0.0000043052674313, -0.0000043052676265 ]
  - [   0.0000000000000102,  0.0000000000001097, -0.0000000000001223 ]
  - [  -0.0012295741476077, -0.0000043052675421,  0.0000043052676801 ]
  - [  -0.0000000000001315, -0.0000000000002180,  0.0000000000002881 ]
  - [  -0.0012295741473839,  0.0000043052676616,  0.0000043052679635 ]
  - [  -0.0000000000004535, -0.0000000000000438, -0.0000000000000547 ]
  - [   0.0009598815550999,  0.0000000000002638,  0.0021981194266424 ]
  - [   0.0009596882486318, -0.0000000000001266, -0.0021807010625286 ]
  - [   0.0000000000000693,  0.0000000000001104, -0.0000000000001587 ]
  - [   0.0000000000002295,  0.0000000000001823,  0.0000000000001266 ]
  - [   0.0009598815548481, -0.0000000000002976, -0.0021981194265734 ]
  - [   0.0009596882490002, -0.0000000000000082,  0.0021807010624599 ]
  - [   0.0000000000000553,  0.0000000000004574,  0.0000000000000934 ]
  - [  -0.0000000000000057, -0.0000000000003625, -0.0000000000000783 ]
  - [   0.0009598815547169,  0.0021981194264096,  0.0000000000002831 ]
  - [   0.0009596882485949, -0.0021807010622660, -0.0000000000000969 ]
  - [   0.0009598815549560, -0.0021981194267801, -0.0000000000000509 ]
  - [   0.0009596882486327,  0.0021807010624628,  0.0000000000007686 ]
  - [  -0.0000000000000297, -0.0000000000000779, -0.0000000000003364 ]
  - [  -0.0000000000000723,  0.0000000000001159, -0.0000000000003915 ]
  - [   0.0000000000001887, -0.0000000000000288, -0.0000000000001404 ]
  - [  -0.0000000000001665, -0.0000000000000273, -0.0000000000002703 ]
  - [   0.0027420162489661,  0.0000000000000548, -0.0000000000000152 ]
  - [   0.0022383856389533,  0.0000000000000372,  0.0000000000003240 ]
  - [   0.0000000000001236,  0.0000000000002166,  0.0000000000001256 ]
  - [   0.0000000000001608, -0.0000000000000079, -0.0000000000001562 ]
  - [  -0.0000000000000515,  0.0000000000000638,  0.0000000000002765 ]
  - [   0.0000000000000976,  0.0000000000002132, -0.0000000000000153 ]
  - [  -0.0000000000001482,  0.0000000000001621, -0.0000000000000877 ]
  - [   0.0000000000001780,  0.0000000000001656, -0.0000000000000065 ]
  - [   0.0000446117348299, -0.0005347340451660, -0.0005347340453026 ]
  - [   0.0000305406494885,  0.0005445594905151,  0.0005445594900727 ]
  - [   0.0000446117347082,  0.0005347340451769, -0.0005347340455815 ]
  - [   0.0000305406494529, -0.0005445594907932,  0.0005445594905382 ]
  - [   0.0000446117347412, -0.0005347340452538,  0.0005347340452653 ]
  - [   0.0000305406495661,  0.0005445594903069, -0.0005445594908104 ]
  - [   0.0000446117347616,  0.0005347340454854,  0.0005347340448773 ]
  - [   0.0000305406494010, -0.0005445594907110, -0.0005445594908565 ]
  - [   0.0017789997895970,  0.0000000000000778, -0.0000013922660032 ]
  - [  -0.0000000000000975, -0.0000000000000305, -0.0000000000000208 ]
  - [   0.0000000000000655,  0.0000000000000173,  0.0000000000000096 ]
  - [  -0.0000000000000138, -0.0000000000000155,  0.0000000000000442 ]
  - [   0.0017789997896322,  0.0000000000001781,  0.0000013922659853 ]
  - [   0.0000000000000527,  0.0000000000001315,  0.0000000000001537 ]
  - [  -0.0000000000000688, -0.0000000000000012,  0.0000000000001511 ]
  - [   0.0000000000001917,  0.0000000000002489,  0.0000000000002924 ]
  - [   0.0017789997892991, -0.0000013922661333,  0.0000000000003735 ]
  - [   0.0000000000000349,  0.0000000000000288, -0.0000000000001630 ]
  - [   0.0017789997896675,  0.0000013922663044, -0.0000000000001382 ]
  - [  -0.0000000000000139, -0.0000000000002383,  0.0000000000000436 ]
  - [  -0.0000000000001031, -0.0000000000000244, -0.0000000000000263 ]
  - [  -0.0000000000000058, -0.0000000000000363,  0.0000000000000475 ]
  - [  -0.0000000000000865,  0.0000000000000344,  0.0000000000001781 ]
  - [  -0.0000000000000618,  0.0000000000000568,  0.0000000000000245 ]
- atom:   33
  displacement:
    [   0.0100000000000000,  0.0000000000000000,  0.0000000000000000 ]
  forces:
  - [   0.0022383856386911, -0.0000000000000345,  0.0000000000002157 ]
  - [   0.0027420162489822,  0.0000000000000155,  0.0000000000003669 ]
  - [   0.0000000000000961, -0.0000000000000500,  0.0000000000001860 ]
  - [  -0.0000000000001268, -0.0000000000000198, -0.0000000000000720 ]
  - [   0.0000000000000373, -0.0000000000000315,  0.0000000000001679 ]
  - [   0.0000000000001614, -0.0000000000001084, -0.0000000000000776 ]
  - [  -0.0000000000002243, -0.0000000000000906, -0.0000000000002058 ]
  - [  -0.0000000000001456,  0.0000000000000273, -0.0000000000000493 ]
  - [   0.0000305406494314,  0.0005445594907348,  0.0005445594906791 ]
  - [   0.0000446117345054, -0.0005347340456065, -0.0005347340451435 ]
  - [   0.0000305406493951, -0.0005445594908112,  0.0005445594906158 ]
  - [   0.0000446117346710,  0.0005347340452317, -0.0005347340452442 ]
  - [   0.0000305406494135,  0.0005445594907542, -0.0005445594906162 ]
  - [   0.0000446117344151, -0.0005347340454545,  0.0005347340455246 ]
  - [   0.0000305406496114, -0.0005445594908234, -0.0005445594905213 ]
  - [   0.0000446117340182,  0.0005347340452676,  0.0005347340452564 ]
  - [   0.0017789997897408,  0.0000000000002640, -0.0000013922659386 ]
  - [  -0.0000000000001419, -0.0000000000001266, -0.0000000000000934 ]
  - [   0.0000000000000692,  0.0000000000001104, -0.0000000000001586 ]
  - [   0.0000000000002296,  0.0000000000001824,  0.0000000000001265 ]
  - [   0.0017789997894891, -0.0000000000002974,  0.0000013922660078 ]
  - [   0.0000000000001296, -0.0000000000000082, -0.0000000000000714 ]
  - [   0.0000000000000553,  0.0000000000004574,  0.0000000000000934 ]
  - [  -0.0000000000000058, -0.0000000000003624, -0.0000000000000782 ]
  - [   0.0017789997894422, -0.0000013922660870,  0.0000000000002830 ]
  - [  -0.0000000000001788,  0.0000000000001690, -0.0000000000000968 ]
  - [   0.0017789997895971,  0.0000013922658011, -0.0000000000000509 ]
  - [  -0.0000000000003004, -0.0000000000001310,  0.0000000000007686 ]
  - [  -0.0000000000000299, -0.0000000000000777, -0.0000000000003365 ]
  - [  -0.0000000000000722,  0.0000000000001160, -0.0000000000003916 ]
  - [   0.0000000000001887, -0.0000000000000288, -0.0000000000001403 ]
  - [  -0.0000000000001665, -0.0000000000000273, -0.0000000000002703 ]
  - [  -0.0289058535112257, -0.0000000000000906, -0.0000000000001897 ]
  - [   0.0000000000002067,  0.0000000000000372,  0.0000000000003240 ]
  - [   0.0000000000001237,  0.0000000000002166,  0.0000000000001256 ]
  - [   0.0000000000001609, -0.0000000000000078, -0.0000000000001563 ]
  - [  -0.0000000000000515,  0.0000000000000638,  0.0000000000002764 ]
  - [   0.0000000000000976,  0.0000000000002133, -0.0000000000000153 ]
  - [  -0.0000000000001482,  0.0000000000001620, -0.0000000000000877 ]
  - [   0.0000000000001780,  0.0000000000001656, -0.0000000000000065 ]
  - [  -0.0007789475129547, -0.0000063558175717, -0.0000063558177084 ]
  - [  -0.0000000000000196, -0.0000000000001255, -0.0000000000005680 ]
  - [  -0.0007789475130758,  0.0000063558176229, -0.0000063558180274 ]
  - [  -0.0000000000000650, -0.0000000000001625, -0.0000000000000924 ]
  - [  -0.0007789475130332, -0.0000063558175912,  0.0000063558176027 ]
  - [   0.0000000000000229, -0.0000000000002980, -0.0000000000002054 ]
  - [  -0.0007789475129784,  0.0000063558178270,  0.0000063558172187 ]
  - [  -0.0000000000000498, -0.0000000000000134, -0.0000000000001590 ]
  - [   0.0024349971426622,  0.0000000000000776, -0.0032013763363311 ]
  - [   0.0024711611027687, -0.0000000000000306,  0.0032629692285106 ]
  - [   0.0000000000000655,  0.0000000000000172,  0.0000000000000096 ]
  - [  -0.0000000000000138, -0.0000000000000157,  0.0000000000000444 ]
  - [   0.0024349971426973,  0.0000000000001781,  0.0032013763363130 ]
  - [   0.0024711611029383,  0.0000000000001316, -0.0032629692283966 ]
  - [  -0.0000000000000688, -0.0000000000000013,  0.0000000000001509 ]
  - [   0.0000000000001918,  0.0000000000002489,  0.0000000000002923 ]
  - [   0.0024349971423642, -0.0032013763364611,  0.0000000000003734 ]
  - [   0.0024711611029006,  0.0032629692285590, -0.0000000000001630 ]
  - [   0.0024349971427328,  0.0032013763366323, -0.0000000000001383 ]
  - [   0.0024711611028517, -0.0032629692287686,  0.0000000000000436 ]
  - [  -0.0000000000001031, -0.0000000000000245, -0.0000000000000262 ]
  - [  -0.0000000000000058, -0.0000000000000362,  0.0000000000000474 ]
  - [  -0.0000000000000865,  0.0000000000000343,  0.0000000000001782 ]
  - [  -0.0000000000000618,  0.0000000000000568,  0.0000000000000246 ]
