 -4.5765603e-01   8.9680925e-02
  6.8630534e-01   9.8714687e-02
 -1.3010790e+00   8.4104054e-02
 -1.0655140e-01   9.8740324e-02
  5.8495581e-01   9.2709169e-02
  1.8730217e-01   9.3903877e-02
  3.6261573e-01   9.7733431e-02
  7.5515546e-03   9.3741208e-02
 -3.3990201e-01   8.9300133e-02
  1.7020823e-01   9.4791636e-02
  8.6556739e-01   8.6606510e-02
  3.7697952e-02   9.5493749e-02
 -8.7706995e-01   9.4336785e-02
 -9.5175040e-01   9.3129531e-02
 -2.9194599e-01   9.4372958e-02
 -5.0800478e-01   9.5206954e-02
 -1.1323739e+00   8.7047584e-02
 -6.1959624e-01   9.8049060e-02
  7.6378894e-01   8.5007913e-02
  1.2587944e+00   9.0510003e-02
  7.2054547e-01   8.9288406e-02
  1.0924693e+00   9.7110614e-02
 -7.3574048e-01   9.8210186e-02
 -1.0905966e+00   9.9670723e-02
  3.3589351e-01   9.5007226e-02
 -7.3485619e-01   1.0000000e-01
 -4.0715057e-01   9.6586615e-02
 -7.2003222e-01   9.2982702e-02
  4.0992162e-01   9.6255645e-02
  4.1743162e-01   9.8086670e-02
 -1.1950769e+00   8.7861761e-02
 -8.6622190e-01   9.2267156e-02
 -3.2523352e-01   8.8747904e-02
  8.5521966e-02   9.2772767e-02
 -1.5942237e-01   8.8598654e-02
 -2.5538105e-01   7.5040132e-02
 -1.2058398e+00   9.4024897e-02
  4.2014673e-01   9.7380877e-02
 -2.3253591e-01   8.4275827e-02
  1.4309688e-01   9.8786250e-02
 -6.1721033e-01   9.6406713e-02
 -2.4666330e-01   9.1404855e-02
  8.0213362e-01   9.6722260e-02
 -6.0888445e-01   9.0638399e-02
 -1.3802214e-01   9.8022446e-02
 -1.0144536e-01   9.7654745e-02
 -1.0794048e+00   8.6120091e-02
 -7.2711587e-01   9.9209845e-02
 -6.7050141e-01   9.8489761e-02
  1.5862885e-01   9.2331149e-02
 -6.5595901e-01   8.4509641e-02
  9.1014476e-03   9.9522457e-02
  1.2392481e-01   9.2327453e-02
 -4.0227789e-02   9.4328046e-02
 -4.2191017e-01   8.5083313e-02
 -3.5007897e-01   8.8130027e-02
 -6.6563779e-01   9.8403335e-02
 -7.6972380e-02   9.7513475e-02
  9.1794449e-01   9.8647967e-02
  4.3052244e-01   9.9314786e-02
 -1.2688009e+00   8.7918110e-02
 -9.4856605e-02   9.4997264e-02
 -1.0049427e+00   9.6654043e-02
  2.1593007e-01   9.8798245e-02
  1.1252506e-01   9.5939778e-02
 -1.3189876e+00   9.2791319e-02
  1.6164285e-01   9.8429628e-02
 -4.3132830e-01   9.5885165e-02
 -2.1063364e-01   9.9121548e-02
 -7.5654083e-01   9.9918969e-02
 -7.5802702e-01   9.8515086e-02
 -7.5796896e-01   9.4460882e-02
  1.0597078e+00   9.5423147e-02
 -9.8899770e-01   8.6868212e-02
 -4.0039191e-01   1.0000000e-01
 -9.3157464e-01   9.1563225e-02
  9.3777245e-01   9.3552485e-02
  3.7933654e-01   9.2863269e-02
  4.0073431e-01   9.5667288e-02
 -3.3015370e-01   8.8222399e-02
 -3.2669070e-01   9.3118630e-02
  1.3249996e-01   9.8837025e-02
 -9.4899350e-01   9.6851341e-02
  1.0129339e-01   9.3339436e-02
  3.3900306e-02   9.3125723e-02
 -8.2943635e-03   9.6022449e-02
 -1.0950859e+00   9.5497727e-02
  1.8480764e-01   8.7722480e-02
  3.7697473e-01   9.9583052e-02
 -4.2562562e-01   8.6202063e-02
 -4.5842457e-01   9.5725060e-02
 -3.7330118e-01   8.5522681e-02
 -8.1287575e-01   9.2320725e-02
 -5.5415994e-01   9.8858826e-02
  5.5059437e-02   9.4938241e-02
  4.5947948e-01   9.6862428e-02
 -5.3583562e-01   9.7224548e-02
  6.9684970e-01   9.5105506e-02
 -1.7378391e-01   8.8343821e-02
 -8.4825344e-02   9.9540643e-02
 -8.0896002e-01   9.4842404e-02
  1.7296387e-01   9.8303497e-02
 -2.9046926e-01   8.3451033e-02
  2.4280801e-01   9.6974112e-02
 -7.5793701e-01   9.3197621e-02
  6.6537321e-02   9.1206163e-02
 -6.9884514e-04   9.8950960e-02
 -6.3955027e-01   8.1249811e-02
  5.4436213e-01   1.0000000e-01
  2.5560528e-01   9.6382119e-02
  2.7697816e-01   9.7740792e-02
 -4.2259178e-01   9.8189533e-02
  2.0876066e-01   9.8241851e-02
  3.8732290e-01   7.6179273e-02
  8.5562915e-01   9.7990409e-02
 -7.5935864e-01   9.7753070e-02
 -1.1638205e+00   9.7096786e-02
 -9.5849508e-01   9.9479437e-02
  2.5251451e-01   9.8266311e-02
 -1.1131589e-02   9.1478862e-02
  4.8970824e-01   9.3809180e-02
  4.8800008e-03   9.7892664e-02
  8.4879613e-01   9.3768649e-02
 -4.3067694e-01   9.0809427e-02
  1.0214812e+00   9.6171536e-02
 -2.2496441e-01   9.8208696e-02
  1.6921841e-01   9.3109816e-02
 -8.0098730e-01   9.7012430e-02
  2.6099181e-01   9.7762294e-02
  5.3331178e-01   9.9035315e-02
 -3.2571256e-01   9.6340954e-02
 -5.9761143e-01   1.0000000e-01
 -8.3419144e-01   9.0779670e-02
 -3.7167579e-01   8.2714386e-02
  7.9463148e-01   9.1943957e-02
 -2.7353835e-01   8.4249474e-02
 -4.7968408e-01   9.5455058e-02
  7.1069765e-01   8.8751920e-02
  4.8813152e-01   8.9747339e-02
  9.7739857e-01   9.3443871e-02
  4.7835568e-01   9.2591718e-02
  5.3188782e-02   9.4872847e-02
 -8.2239354e-01   1.0000000e-01
 -6.5697730e-01   9.9646419e-02
  3.5463259e-01   9.6340127e-02
 -5.5275154e-01   8.7149009e-02
 -7.4702936e-01   9.7698964e-02
  1.1536368e+00   9.3836680e-02
  6.1712182e-01   9.8114669e-02
 -3.6870480e-01   9.3938686e-02
 -3.4541571e-01   9.5660165e-02
  9.2734849e-01   9.5497608e-02
  1.0785862e+00   8.5672572e-02
  1.3790821e-01   9.1400214e-02
  2.7978137e-01   9.9296212e-02
  3.0068126e-01   9.6467830e-02
  4.5257422e-01   9.3949586e-02
 -2.2321337e-01   9.1560870e-02
 -1.5448116e-01   8.7805517e-02
  3.1387880e-01   8.6616881e-02
 -8.9854114e-02   9.1685809e-02
 -9.7630286e-01   9.3055591e-02
 -5.2584749e-01   9.5625393e-02
 -8.8545799e-02   9.3470812e-02
  8.4094119e-01   9.1926835e-02
  6.2882429e-01   9.7689189e-02
 -7.7114987e-01   7.9084814e-02
 -8.4748976e-02   9.7770415e-02
  4.1462985e-01   9.3196653e-02
  2.6535735e-01   9.8647483e-02
 -8.7001020e-01   9.7228944e-02
  4.9457473e-01   9.5119685e-02
  3.3101174e-01   9.8808065e-02
  7.8738493e-01   1.0000000e-01
  8.5421145e-01   9.0203948e-02
  8.6578804e-01   9.0672158e-02
 -1.7358437e-01   9.2737593e-02
 -2.6216097e-02   9.6536003e-02
  8.8286445e-02   9.9933118e-02
 -8.9007306e-01   9.2652000e-02
 -6.1032999e-01   9.8013677e-02
 -4.4966319e-01   9.6406020e-02
 -4.6424773e-01   8.8790573e-02
 -3.6607587e-01   9.3180239e-02
 -7.6112497e-01   8.6800300e-02
 -3.1806219e-02   8.0802776e-02
  6.0859602e-02   9.9482983e-02
 -1.2617235e+00   9.1119535e-02
 -9.8181444e-01   8.5609458e-02
 -2.1104971e-01   9.5949151e-02
  2.6209870e-02   9.8642267e-02
 -9.4937307e-01   8.8381812e-02
 -5.4477203e-01   9.8205656e-02
  2.8038886e-01   9.2195697e-02
 -8.9401978e-01   9.8794892e-02
  9.5560396e-01   8.9783102e-02
 -6.1151195e-01   8.6392708e-02
  3.4453171e-01   9.5562160e-02
  8.8541776e-02   9.8532900e-02
 -4.2202145e-01   9.3563959e-02
 -7.7066910e-01   8.3217673e-02
  3.8960102e-01   8.3543293e-02
 -4.7859061e-01   8.8279374e-02
 -9.3554264e-01   8.3083704e-02
  3.0139896e-01   9.3693055e-02
  1.0048910e-01   9.2471436e-02
 -8.8414890e-01   9.1918707e-02
 -9.0356296e-01   9.2074946e-02
  3.3103335e-01   8.9784265e-02
 -6.3364285e-01   9.2923090e-02
  2.1688591e-01   1.0000000e-01
 -4.5290202e-01   9.7657904e-02
  1.1611570e+00   9.1293842e-02
  4.2768806e-01   8.8612258e-02
  4.8966548e-01   9.3425699e-02
 -8.5412824e-01   9.5496714e-02
 -3.1318415e-02   8.6860985e-02
 -4.9441883e-01   9.5474184e-02
  7.2148865e-01   8.9866072e-02
 -4.6234161e-01   9.2550084e-02
  4.2668623e-01   9.9875465e-02
  5.1695925e-01   9.7251520e-02
 -2.9334590e-01   9.7329259e-02
  1.1488746e-01   9.7999178e-02
  1.5567811e-01   1.0000000e-01
 -5.5098283e-01   8.4081486e-02
  9.6978867e-01   1.0000000e-01
  6.9399965e-01   9.7142875e-02
  8.0509466e-01   8.9827910e-02
 -9.1763455e-01   8.9932613e-02
 -4.7752550e-01   9.0326525e-02
  3.7501174e-01   9.1089860e-02
  3.3934948e-01   7.8753620e-02
 -2.7917532e-02   9.6223742e-02
  3.8208872e-01   9.5089272e-02
 -2.8201470e-01   1.0000000e-01
 -2.7426988e-01   8.2227819e-02
 -1.3489391e-01   9.8114319e-02
  1.2274029e+00   8.9954898e-02
 -7.1210629e-01   8.9068070e-02
  2.2067696e-02   9.9507496e-02
  4.7416773e-01   8.8563994e-02
  7.1259099e-01   8.9628480e-02
 -1.6428930e-01   9.5995337e-02
 -6.0258222e-01   9.2410617e-02
 -7.3485330e-02   9.7258009e-02
  6.2524438e-01   9.3666822e-02
  5.1259512e-01   1.0000000e-01
 -8.0634630e-01   9.8360889e-02
  2.7982540e-02   1.0000000e-01
 -9.1006535e-01   9.6847504e-02
  1.7916992e-02   9.4371401e-02
 -4.5191792e-01   9.7386956e-02
 -7.5680780e-01   9.1941215e-02
 -3.2157108e-01   9.6043311e-02
  5.3328121e-01   9.5707044e-02
 -6.6561681e-01   9.1687441e-02
 -4.6106528e-02   9.7098216e-02
  8.4441483e-02   8.8217154e-02
  2.6877904e-01   9.4068415e-02
 -5.8020133e-01   8.4826916e-02
  3.7679893e-01   9.0000741e-02
  1.4515796e-01   9.2307821e-02
  2.4344596e-01   9.7037338e-02
  5.8270454e-01   8.7206766e-02
  3.5459986e-01   9.5616832e-02
  2.6012449e-02   9.5728554e-02
 -8.8675874e-01   9.8861195e-02
  4.1924588e-02   8.6921193e-02
 -9.0744741e-02   9.6184134e-02
  2.4267514e-01   9.0446889e-02
  1.2246040e+00   9.6368134e-02
 -7.4335067e-03   9.7428925e-02
  1.1152704e+00   9.7607732e-02
  3.3451176e-01   9.8566495e-02
  2.9445052e-01   9.0697259e-02
  5.2295548e-01   9.1145299e-02
 -1.5589565e-01   9.5735572e-02
  3.9576140e-01   9.5401697e-02
 -9.0903980e-01   9.5737629e-02
  4.9635774e-01   9.5542766e-02
 -4.4891703e-01   9.2487849e-02
  4.2125341e-02   9.9105187e-02
 -6.7998028e-01   9.8504394e-02
  5.2564687e-01   8.9415625e-02
 -8.7840223e-01   9.7268909e-02
 -2.5357947e-02   9.1144376e-02
  5.3021818e-01   9.9808320e-02
 -1.6297556e-01   7.3539570e-02
 -4.1394782e-01   9.4188958e-02
  5.7817001e-02   9.5459528e-02
  5.5061620e-01   8.7896653e-02
  9.1447037e-01   9.4694577e-02
 -4.9064940e-01   9.8124072e-02
  6.8745136e-01   8.7240830e-02
  3.4669068e-01   8.8352434e-02
 -5.1631051e-01   9.6397892e-02
  3.1420964e-01   9.5287167e-02
  9.7893691e-04   9.5266320e-02
  1.3332033e-02   9.9992245e-02
 -4.4460705e-01   8.6154364e-02
 -3.6262223e-01   8.9161202e-02
  1.0883301e+00   9.7424150e-02
 -2.7404493e-01   9.4942324e-02
 -2.2812976e-01   9.9318787e-02
 -6.1364573e-01   8.4092855e-02
 -3.1825414e-01   8.7460078e-02
  2.7170029e-01   9.7338788e-02
 -1.3275781e+00   9.7535655e-02
 -2.2692277e-01   8.5411198e-02
 -1.8461746e-01   9.8460503e-02
  3.7505433e-01   9.1491222e-02
 -4.0555879e-02   8.9869089e-02
  9.6394283e-01   9.6393272e-02
 -7.6972991e-01   8.3574191e-02
  8.9126892e-02   8.7280817e-02
 -7.6627606e-01   9.2394546e-02
 -5.8342344e-01   8.3181083e-02
 -4.1016108e-01   9.4785124e-02
 -7.2777390e-01   9.0219609e-02
  7.1420681e-01   9.8664865e-02
  2.3040375e-01   9.5554866e-02
 -6.7397952e-01   8.0146067e-02
 -9.9518663e-01   9.3518510e-02
  8.8786912e-01   1.0000000e-01
  4.3215893e-02   9.4939008e-02
  5.2157867e-01   9.6804254e-02
  1.7828968e-01   9.3735687e-02
 -1.5211067e-01   9.5039710e-02
  5.7577294e-01   9.1345951e-02
 -2.0315912e-01   9.0794265e-02
 -2.8596574e-01   8.9800514e-02
 -9.1416287e-01   9.9042766e-02
  1.5745424e-01   9.8609038e-02
  7.4808353e-01   9.7144090e-02
  4.5195776e-01   9.4040185e-02
  1.3695031e+00   9.7330451e-02
  2.7282098e-02   9.8333493e-02
  7.2168976e-01   9.7072095e-02
 -5.9901947e-01   8.4497228e-02
  3.0241942e-01   8.3965935e-02
 -2.7722076e-01   8.7407418e-02
 -5.0992317e-02   1.0000000e-01
 -3.6771336e-01   8.1841521e-02
 -5.4914951e-01   9.3035944e-02
  2.3430999e-01   9.9651903e-02
  4.7130802e-01   9.4581239e-02
 -1.0135087e+00   9.1478452e-02
 -8.0016249e-01   9.9377066e-02
  5.7557619e-01   8.8661268e-02
 -5.9519082e-01   9.6382275e-02
 -8.4627968e-01   9.3119614e-02
  4.1981742e-01   8.8764727e-02
  7.6015735e-01   9.1625392e-02
  3.5252735e-02   9.6455239e-02
  4.1854358e-01   9.9841967e-02
  1.1828525e-01   1.0000000e-01
 -5.3761673e-01   9.2427075e-02
 -1.3040270e-02   9.9143676e-02
  4.4382009e-01   9.6152283e-02
 -4.2046231e-01   8.6137258e-02
 -2.0214410e-01   8.8611059e-02
 -1.0941085e+00   1.0000000e-01
 -4.6997571e-01   9.5163316e-02
  7.3715711e-01   9.6500799e-02
  3.7520728e-01   1.0000000e-01
 -6.7176968e-02   9.8210789e-02
  1.9306180e-01   9.4247520e-02
 -3.5292295e-01   8.8584632e-02
  6.6652822e-01   9.3521640e-02
  1.0621296e+00   9.5242269e-02
 -1.1484624e-01   9.5464945e-02
 -5.1064932e-01   9.3176402e-02
 -9.6947682e-01   9.0338618e-02
  1.0664024e+00   9.3235977e-02
  6.8571687e-01   9.2605382e-02
 -2.4584939e-01   9.1617182e-02
  4.0053681e-01   9.3759231e-02
  4.4007754e-01   8.2581900e-02
  8.5375674e-02   1.0000000e-01
 -3.3552006e-01   9.4765209e-02
  9.1295850e-01   8.9165829e-02
 -3.3812556e-01   8.9504600e-02
 -1.2970893e-01   9.0481140e-02
 -2.8442967e-01   1.0000000e-01
 -1.0488732e+00   9.8797470e-02
  4.4588816e-01   9.5269389e-02
  5.1063383e-01   9.3497314e-02
 -5.5570181e-02   9.8027050e-02
 -6.5843123e-01   9.4319351e-02
  1.1365256e-01   9.2096440e-02
  7.4376404e-01   9.4727047e-02
  2.2755022e-01   9.5721602e-02
 -9.2025585e-02   1.0000000e-01
  7.1681535e-01   9.2239439e-02
 -8.3453321e-01   9.3793504e-02
 -1.2423576e-01   9.1320962e-02
  6.1772263e-01   9.3134880e-02
  6.0877150e-01   7.7229865e-02
  1.5462928e-01   9.6727662e-02
  6.1790252e-01   8.6104065e-02
  2.8209293e-01   9.0532400e-02
  2.6238486e-01   9.6642785e-02
 -1.0763338e+00   1.0000000e-01
  1.0178019e-01   9.1355778e-02
  4.7875518e-01   9.1768466e-02
 -3.7263322e-01   8.6789422e-02
 -1.7787415e-01   9.1346949e-02
 -2.8529806e-02   9.0259679e-02
  4.9476862e-01   7.9290517e-02
 -4.6424446e-01   9.9485360e-02
  1.4222133e-01   9.2490628e-02
 -1.1986656e-01   9.7617000e-02
  4.4414696e-01   9.9681988e-02
 -3.5597286e-01   9.0111144e-02
 -9.4272786e-01   9.7614139e-02
  8.1652507e-02   9.4328851e-02
  3.6163580e-02   9.3667679e-02
 -6.1864489e-01   9.5041052e-02
  6.9089270e-01   9.8079167e-02
  7.8532630e-01   9.9898279e-02
 -1.9452170e-01   8.8489555e-02
 -9.7576690e-01   9.4939455e-02
  9.3688881e-01   9.3374290e-02
  7.8320020e-01   8.3990246e-02
 -6.7782305e-02   9.5470309e-02
 -6.0673517e-01   8.4680885e-02
 -8.7572771e-01   9.9416211e-02
  5.5147767e-02   8.4649965e-02
  3.0906430e-01   9.0350084e-02
  6.4526045e-01   9.3460746e-02
  1.8323873e-01   9.3103424e-02
 -7.8842473e-01   9.8668411e-02
 -7.2169024e-01   9.5338449e-02
  9.3218863e-01   9.4027489e-02
 -1.2957570e-01   9.7335361e-02
  6.2502408e-01   1.0000000e-01
 -9.6983159e-01   8.8674285e-02
 -5.8692422e-02   1.0000000e-01
 -2.4792047e-01   9.7696178e-02
 -7.7936000e-01   9.5419869e-02
 -9.6385926e-01   9.5182136e-02
 -2.4798982e-01   9.9105291e-02
  7.3678893e-01   9.3658879e-02
 -1.3233454e+00   9.4291814e-02
  6.0663193e-01   9.9008635e-02
  2.8575349e-01   9.9348672e-02
 -9.1535732e-02   8.6357728e-02
 -9.8823428e-02   9.7659148e-02
 -3.6846003e-01   9.0700060e-02
  6.3862050e-01   1.0000000e-01
  1.9180839e-01   8.7632999e-02
  4.6997213e-01   8.4675789e-02
  6.8019032e-01   8.2640439e-02
  5.6840968e-01   9.5737368e-02
  4.4643074e-01   9.6990772e-02
  9.0569484e-01   9.3698338e-02
  2.5639302e-01   9.8137997e-02
 -6.0686839e-01   9.5937252e-02
  6.0615617e-01   7.9518460e-02
  4.5193496e-01   9.0649381e-02
  1.0184513e+00   9.5128767e-02
  8.0602694e-01   8.9386083e-02
  8.7836273e-02   9.9845760e-02
 -4.1089272e-01   9.9268369e-02
 -6.2904918e-01   9.5208511e-02
  5.6913805e-01   9.0266168e-02
 -5.6121062e-02   9.8059833e-02
  6.9677122e-02   9.5378809e-02
 -5.2849680e-01   9.7622439e-02
  6.4345771e-01   9.6693911e-02
  6.2412030e-01   9.5171891e-02
 -1.0506555e+00   9.4990216e-02
  5.4751086e-01   9.5558420e-02
  1.0052979e+00   9.1039263e-02
 -1.9248798e-01   9.1085158e-02
 -6.3001698e-01   9.6660800e-02
  2.1490270e-01   9.2372350e-02
 -5.1065803e-01   9.2876755e-02
  1.8302095e-01   8.4197879e-02
 -1.1094046e-01   9.9211104e-02
 -5.6342179e-01   9.2988990e-02
 -9.1014147e-01   8.8244446e-02
  3.6180329e-01   9.9332653e-02
 -6.9473410e-01   8.5683353e-02
 -8.5735279e-01   9.7869553e-02
  4.5205966e-01   9.6072987e-02
 -3.1238076e-01   9.4335794e-02
 -2.2550443e-01   8.8503383e-02
 -2.2559701e-01   9.8628819e-02
 -4.2566299e-02   9.5020205e-02
  3.1573042e-01   9.5116951e-02
  9.5339924e-02   8.8787742e-02
  5.6476128e-01   9.8424718e-02
  8.5410976e-01   9.6381932e-02
  1.5104868e-01   7.6849557e-02
 -2.5095811e-01   9.4266169e-02
 -3.1701910e-01   9.1742814e-02
  3.5903198e-01   9.6857511e-02
  9.4929054e-02   9.4339013e-02
 -9.4731241e-01   8.6625047e-02
 -4.3166777e-01   8.7099873e-02
  5.5676329e-01   8.8026740e-02
  7.7506267e-02   9.4094448e-02
 -6.8724471e-01   9.8618343e-02
 -1.5961307e-01   9.0510577e-02
 -9.1589850e-01   9.5795549e-02
  4.5404136e-01   9.5520437e-02
  1.0661209e-01   9.9464707e-02
 -9.7195476e-01   1.0000000e-01
  4.4552213e-01   9.8061487e-02
 -1.1247028e+00   9.8640308e-02
  3.9059643e-02   1.0000000e-01
  4.4607889e-02   9.1044866e-02
 -9.5821542e-01   1.0000000e-01
 -7.9366028e-01   9.0963997e-02
 -4.0509900e-01   9.3947388e-02
  1.0567683e+00   9.6383117e-02
 -3.3895937e-01   9.7802132e-02
 -3.0057997e-01   9.6243560e-02
 -1.4977691e-01   9.7671196e-02
  5.3310174e-01   9.7923845e-02
  4.1374054e-02   9.3699165e-02
 -2.4016285e-01   9.0276487e-02
  9.0664589e-01   9.8860398e-02
 -8.3353686e-01   9.0164959e-02
  1.2496636e+00   9.4578601e-02
 -8.4202242e-01   9.8357007e-02
 -2.4201924e-01   8.9502946e-02
  7.2954613e-01   9.8507054e-02
 -4.0202141e-02   9.3512945e-02
 -3.3343762e-01   9.5403984e-02
 -8.2319319e-01   9.4332106e-02
  4.3569714e-01   9.3482971e-02
  8.0079979e-01   9.7290017e-02
  1.3552530e-01   8.8627897e-02
  8.4985238e-01   1.0000000e-01
  7.6114428e-01   9.6891820e-02
  5.5655909e-01   9.7356848e-02
 -6.7225623e-01   9.3470313e-02
 -8.8601184e-01   7.9485416e-02
 -8.6585099e-01   8.9051619e-02
 -1.7950341e-02   9.5857859e-02
 -1.1597753e+00   9.7661749e-02
  7.1139887e-02   9.9712275e-02
 -8.0930936e-01   9.0358064e-02
  4.8971195e-02   9.5078833e-02
 -1.6463555e-01   9.7487897e-02
 -9.5033169e-01   9.9389002e-02
  5.7245368e-01   9.1477334e-02
  2.9655883e-01   9.8391049e-02
 -5.8627301e-01   9.4949774e-02
  8.0044007e-01   9.4582811e-02
 -5.9625107e-01   8.3500810e-02
 -1.7164753e-01   9.3306966e-02
  2.1606000e-01   9.6614257e-02
  1.0325059e+00   8.9474812e-02
 -3.0954000e-01   8.9717098e-02
  2.1270780e-01   9.7373910e-02
  6.6114241e-01   1.0000000e-01
 -8.1888658e-01   8.7850176e-02
 -2.9979300e-01   8.5574269e-02
  8.9710176e-02   8.6854681e-02
  9.5874542e-01   9.1829255e-02
 -8.0255739e-02   9.9158853e-02
 -8.1163746e-01   8.7103128e-02
 -5.2667719e-01   9.5511906e-02
 -1.7454112e-01   9.2608213e-02
  1.1318371e+00   9.8379612e-02
 -5.4548824e-01   9.3827032e-02
  1.3327803e-01   8.6269170e-02
 -1.2978797e+00   9.0378515e-02
  1.2061449e-01   9.7330853e-02
 -2.7098263e-02   1.0000000e-01
 -1.1776966e+00   8.9363903e-02
 -1.0247855e+00   9.2544638e-02
 -7.3969054e-01   9.4958760e-02
  5.3886873e-01   9.8495424e-02
  1.3051631e+00   9.9661112e-02
  3.0060282e-01   9.7959660e-02
 -1.1939579e+00   8.7616459e-02
 -9.1491830e-01   9.0794258e-02
  4.3482721e-01   9.5607884e-02
  9.7997600e-01   1.0000000e-01
  5.7602078e-01   9.6972518e-02
 -8.3895904e-01   9.1031969e-02
 -1.3404012e-01   9.4644286e-02
  4.1875574e-01   9.4364524e-02
 -3.1018600e-01   9.2687257e-02
 -5.1221228e-01   9.2476532e-02
  9.5858920e-01   8.8834971e-02
  3.8858759e-01   9.5185377e-02
 -9.8575193e-01   9.5501542e-02
 -9.3703799e-02   9.3726352e-02
 -6.9610202e-01   8.2780004e-02
 -6.4023709e-01   8.7551035e-02
  1.1586261e+00   8.4149607e-02
  5.8224654e-01   1.0000000e-01
  4.6154541e-01   9.8484300e-02
 -1.1331246e+00   9.4239645e-02
  1.0694362e+00   9.7915173e-02
  4.8910043e-01   8.6818479e-02
 -4.2854926e-01   8.8353142e-02
 -9.1946405e-01   9.6974924e-02
  7.1865356e-01   9.4836906e-02
  3.7323096e-01   9.3581215e-02
 -5.3552783e-01   9.1739789e-02
  5.8231652e-01   8.8978708e-02
  9.3520504e-01   8.9860745e-02
 -9.8475039e-02   9.3699604e-02
 -2.2626665e-01   9.4880059e-02
 -1.0539775e+00   9.1392979e-02
 -1.0529879e-01   9.3060777e-02
  1.4089965e+00   9.1258354e-02
  3.7778327e-01   9.6840255e-02
  1.5257494e-01   9.0714015e-02
 -1.0989298e+00   9.6747704e-02
  1.0835295e+00   9.7305723e-02
 -4.1286317e-01   9.8324381e-02
 -8.8689286e-01   9.2404604e-02
  2.5878197e-01   9.0555258e-02
 -4.6793753e-01   8.7856270e-02
 -1.3260584e+00   9.6237369e-02
 -6.5499365e-01   8.9577772e-02
 -6.2290704e-01   9.4916619e-02
 -3.9716616e-01   8.9959718e-02
 -4.9443099e-01   9.9699311e-02
 -5.6240034e-01   8.7954901e-02
 -7.8731036e-01   8.7495677e-02
 -9.2866328e-03   9.8425910e-02
 -5.1226008e-01   9.8692656e-02
  6.8331100e-02   9.0415373e-02
 -1.0110890e+00   9.5775098e-02
  6.5275267e-02   9.4301142e-02
 -1.0982991e+00   9.2020132e-02
  7.0732260e-01   9.3561478e-02
 -1.4537221e-01   8.9225188e-02
  5.8845139e-01   8.8154808e-02
 -5.3340095e-01   9.8631166e-02
  7.6553655e-01   9.2446350e-02
 -1.5707092e-01   9.1757208e-02
  3.6216131e-01   8.9880690e-02
 -5.8378887e-01   8.8110574e-02
 -1.7920122e-01   9.9632926e-02
  8.2775760e-01   9.9411897e-02
 -7.9793441e-01   9.6121766e-02
  4.5749167e-01   8.5507177e-02
  9.5374731e-04   9.2842318e-02
  2.6577401e-01   8.6463004e-02
  1.0121316e+00   9.4879456e-02
 -2.6062566e-01   9.8312184e-02
  5.3045946e-01   9.7355537e-02
 -8.8046461e-01   9.0055741e-02
  4.9799779e-01   8.6719625e-02
  3.6761823e-01   9.9747531e-02
 -4.1904706e-01   9.4961092e-02
  4.3244115e-03   9.2215784e-02
 -3.4632212e-01   8.7688610e-02
 -7.9448330e-01   9.3497679e-02
  1.8981673e-01   9.9762581e-02
 -3.8230354e-01   8.5854433e-02
 -2.8788951e-01   8.3268724e-02
 -7.5193965e-01   8.6010873e-02
  2.5893393e-01   9.7723007e-02
 -8.2733251e-02   9.9016637e-02
 -3.5782939e-01   9.4707727e-02
  5.5962682e-01   9.7243331e-02
  2.1853216e-01   9.8947048e-02
  2.4734257e-01   9.8623522e-02
 -1.9790245e-02   9.0803541e-02
  9.5678228e-01   8.0003202e-02
 -9.9992365e-01   8.8356845e-02
 -4.0673652e-01   8.7849103e-02
 -5.9582734e-01   9.4584905e-02
 -2.2653674e-01   9.4454907e-02
 -5.9039468e-01   9.4982848e-02
 -4.3531016e-01   9.2323907e-02
  6.5242273e-01   9.5431611e-02
  8.8788658e-01   8.5277162e-02
  1.0683211e-02   9.0221159e-02
 -1.7748101e-01   9.5055208e-02
 -3.5257134e-01   8.7510616e-02
  9.1055408e-02   9.6809477e-02
  1.7809993e-01   9.4894052e-02
  1.3855296e-01   9.0875529e-02
 -5.8033180e-01   7.8361474e-02
 -3.7766761e-01   9.3760386e-02
 -1.0166910e+00   9.2414431e-02
 -5.1041764e-01   8.6264394e-02
 -2.7554405e-03   9.5652834e-02
 -8.6470860e-01   1.0000000e-01
 -1.6326165e-02   9.7223677e-02
  9.2839700e-01   8.4509939e-02
  1.1052989e+00   9.9761054e-02
 -2.7789283e-01   9.9601820e-02
  6.5603417e-01   9.9537805e-02
  6.1525750e-01   9.7497448e-02
  6.5031296e-01   8.4869027e-02
 -5.4187506e-01   9.6653029e-02
 -2.7717203e-01   9.4692454e-02
 -4.0625906e-01   1.0000000e-01
  2.5719112e-01   9.3782820e-02
 -7.7870721e-01   9.5249377e-02
 -8.3787894e-01   8.4732860e-02
 -5.2474922e-01   9.5199980e-02
 -4.4118690e-01   9.1858543e-02
  3.2630050e-01   9.8918840e-02
 -3.3004031e-01   9.4334126e-02
 -6.0066235e-01   9.8416157e-02
  5.4481781e-01   1.0000000e-01
  4.9888223e-01   9.7466230e-02
 -8.2673734e-01   9.5321998e-02
 -6.0131216e-01   9.2147902e-02
 -3.4756199e-01   9.8918580e-02
  1.1400856e-01   9.1883533e-02
  9.9555701e-02   8.7542109e-02
 -8.7218332e-01   9.2252284e-02
 -1.5588048e-01   9.2351437e-02
 -2.8884798e-01   8.5883051e-02
  4.3575448e-01   9.4181158e-02
  2.5234401e-01   9.3755171e-02
 -2.1493801e-01   9.8549016e-02
  1.2018288e+00   9.3737163e-02
 -2.7123663e-01   9.1194496e-02
 -6.6103965e-01   9.3372278e-02
  2.3210329e-01   9.6077010e-02
 -3.8623255e-01   9.2016928e-02
 -4.6922964e-01   8.5983761e-02
 -4.9338463e-01   9.3965940e-02
 -1.5182139e-01   9.8524690e-02
  8.8948292e-01   9.6876331e-02
  5.4747295e-01   1.0000000e-01
 -3.1219441e-01   8.6453073e-02
  9.3120456e-01   8.3988130e-02
  6.6663492e-01   8.5023388e-02
  6.6633916e-01   1.0000000e-01
 -6.7629772e-01   1.0000000e-01
  5.1158768e-01   1.0000000e-01
 -8.4494126e-01   9.2028737e-02
 -5.5120325e-01   8.7852247e-02
 -5.5294728e-01   9.7728595e-02
  2.3334508e-01   8.9639105e-02
 -1.6063990e-01   9.8567463e-02
 -9.5000774e-01   9.9857062e-02
 -9.1399920e-01   9.6102603e-02
 -7.5323772e-01   9.7319119e-02
  5.0889087e-01   9.5681474e-02
 -5.5907148e-01   9.6014887e-02
  7.1762556e-01   9.6701227e-02
  2.0289072e-01   1.0000000e-01
  2.2341503e-01   9.0451553e-02
  1.2768783e-01   1.0000000e-01
  4.1232991e-01   9.5080137e-02
  2.3477316e-01   9.7195610e-02
 -9.7775191e-01   9.0121143e-02
 -3.4262839e-01   9.6736014e-02
  5.7731569e-01   9.4722979e-02
  7.1256810e-01   9.8175824e-02
  4.2538706e-02   9.6408986e-02
 -1.1067179e+00   8.5541360e-02
  8.0759293e-01   9.6243747e-02
 -4.6509871e-01   9.4942652e-02
 -3.3969112e-02   9.3571626e-02
  8.6666442e-02   9.0401024e-02
 -3.8996181e-01   9.6599378e-02
 -8.5632867e-01   9.1774717e-02
 -2.2416623e-01   9.6650109e-02
  1.0281821e+00   8.8014096e-02
 -3.3769295e-01   9.2673816e-02
 -1.0392642e+00   8.9094535e-02
 -9.6659797e-01   9.7390778e-02
 -8.3301222e-01   8.7914512e-02
 -3.9308739e-01   9.9711142e-02
 -1.0961274e-01   9.4000839e-02
  5.3909928e-01   9.8067552e-02
 -8.6498702e-01   8.5663646e-02
  3.1493995e-01   9.8497495e-02
  8.1766999e-01   9.0854570e-02
  5.7266647e-01   9.3507245e-02
  7.9053700e-01   9.8296240e-02
 -4.0233412e-01   9.7239278e-02
 -9.7169739e-01   9.0891644e-02
 -3.0552334e-01   9.2486434e-02
 -2.4943793e-01   9.7956419e-02
  2.1811573e-01   1.0000000e-01
  4.2379263e-01   9.5891789e-02
 -5.4407680e-01   9.5062569e-02
  8.0407751e-01   9.7673297e-02
  1.6312426e-01   9.5994845e-02
 -5.0890654e-01   8.8021494e-02
  7.7604198e-01   8.9017279e-02
 -7.2469842e-01   9.3019329e-02
 -2.1298638e-01   9.2457809e-02
 -7.0930362e-01   9.6259929e-02
  2.8354695e-01   9.9447347e-02
  4.2287514e-01   9.7994655e-02
 -4.2962214e-01   8.4934838e-02
  1.1142524e+00   9.9966690e-02
 -5.0615269e-01   8.7582447e-02
  4.8083073e-01   8.8052951e-02
 -6.1645944e-02   1.0000000e-01
 -8.6749768e-01   9.6823499e-02
  1.0447022e+00   9.3899742e-02
  1.0927141e+00   9.6875027e-02
  8.1729627e-01   9.2125461e-02
 -8.4874374e-01   9.9312745e-02
  3.6969948e-01   8.8973545e-02
 -3.2360661e-01   9.3861677e-02
 -1.1304313e+00   8.4898978e-02
 -6.7081207e-01   9.3410753e-02
 -9.7274268e-01   9.0214014e-02
  5.4276258e-01   8.9373671e-02
  4.9344224e-01   9.3258306e-02
 -4.6212748e-01   9.0989754e-02
  1.1668015e-01   9.2269823e-02
 -4.8509648e-01   1.0000000e-01
 -3.4411210e-01   8.7380812e-02
 -3.4048554e-01   9.4246753e-02
 -7.0391625e-01   9.1534771e-02
 -2.7461529e-01   9.9224105e-02
 -3.6007071e-01   9.6565321e-02
  6.2154830e-01   9.7195245e-02
  2.4495041e-01   9.8166853e-02
  5.9763622e-01   8.4839627e-02
  3.5924515e-01   9.3353063e-02
 -5.6199926e-01   9.6664563e-02
  8.1111193e-02   9.2264310e-02
  6.7502266e-01   1.0000000e-01
  8.8395107e-01   9.2464432e-02
 -7.6799333e-01   9.4089635e-02
 -2.8077316e-01   9.1038823e-02
  1.2913252e-01   9.5746212e-02
  8.7115359e-01   8.5723847e-02
 -7.1524215e-01   9.0577483e-02
  6.4469248e-01   9.5515817e-02
 -4.9664542e-01   9.2450678e-02
 -7.0810926e-01   1.0000000e-01
  3.5897595e-01   9.3377195e-02
 -2.6412189e-01   9.3982331e-02
 -4.8672825e-01   9.5910423e-02
  6.9264084e-01   9.7105041e-02
  5.2427489e-01   1.0000000e-01
 -8.5968953e-01   9.4580218e-02
 -6.3441426e-01   9.6575648e-02
 -2.5889760e-01   9.7831696e-02
  6.8000811e-01   9.5614284e-02
  3.0473992e-01   1.0000000e-01
 -1.4925985e-01   9.2533752e-02
 -4.0752396e-02   9.9977165e-02
  2.5026858e-01   8.5958280e-02
 -5.4364210e-01   9.4714440e-02
  7.0616078e-01   9.6782811e-02
 -1.2938963e-01   8.8695362e-02
  5.6949197e-03   9.3362682e-02
 -2.4061084e-01   9.4591655e-02
  6.7723221e-01   1.0000000e-01
  7.3536962e-01   8.3049215e-02
 -7.7224988e-01   9.6510060e-02
 -3.2822135e-01   8.6132117e-02
 -4.5262006e-01   9.7169183e-02
 -3.3347735e-01   9.0310685e-02
  7.9008728e-01   8.4340140e-02
 -8.8952094e-01   8.7014191e-02
  3.7833667e-01   9.3044817e-02
 -6.7750359e-01   9.6026294e-02
 -4.1027722e-01   9.3809821e-02
 -1.9303486e-02   9.8585762e-02
  4.0392610e-01   8.9117564e-02
  6.1593860e-01   9.4780922e-02
 -4.0574223e-01   9.1861606e-02
  3.5753667e-02   9.1678008e-02
 -8.9677238e-01   8.5342705e-02
 -6.1837018e-01   8.2873330e-02
 -2.6022395e-01   8.9606576e-02
 -4.2923772e-01   1.0000000e-01
  7.3457026e-01   9.8971002e-02
 -2.1302210e-01   8.9952312e-02
  8.1897312e-01   8.3224453e-02
  3.2191512e-01   9.8515205e-02
  1.5338391e-02   9.9915430e-02
 -1.0794930e+00   9.4537847e-02
  1.7094712e-01   8.5125364e-02
 -5.4039389e-01   9.9677667e-02
  5.8591306e-01   9.6921615e-02
  2.2148155e-02   8.6812131e-02
  5.1063913e-01   8.2925089e-02
  1.9480051e-01   7.8596897e-02
  6.7211330e-01   9.5337525e-02
 -1.1069574e+00   9.0905443e-02
  7.7703661e-01   1.0000000e-01
 -2.3747914e-01   9.9587418e-02
 -4.1265354e-01   9.9584952e-02
  6.4856857e-01   8.9143679e-02
 -2.2641705e-01   9.5268846e-02
 -1.0048867e+00   9.3440108e-02
 -1.0575878e-02   9.6005589e-02
  8.4870058e-01   9.3108945e-02
 -1.0684935e+00   9.7468875e-02
  1.1774479e+00   9.0178005e-02
  6.6600078e-01   9.7965024e-02
  1.5981615e-01   9.3236491e-02
  8.6882645e-01   8.6153470e-02
  6.6934210e-01   9.3247138e-02
  5.8427173e-01   8.2680345e-02
  6.1765367e-01   9.2575535e-02
 -6.6931480e-01   8.2640432e-02
  5.5374503e-01   8.8650987e-02
  3.0992898e-01   9.6351914e-02
 -8.0305368e-01   9.4417028e-02
 -1.2865609e-01   9.8209694e-02
 -8.0204964e-01   9.5127106e-02
 -5.1471370e-01   8.8165134e-02
 -8.6036772e-01   9.7886615e-02
 -7.7800560e-01   9.5004626e-02
 -4.6821736e-02   9.5595144e-02
 -6.6516227e-01   9.3685046e-02
 -2.7034187e-01   9.4723441e-02
  7.5369728e-01   1.0000000e-01
  8.6358470e-01   9.1885425e-02
  3.9379275e-01   9.8184489e-02
  7.0908660e-01   9.3323275e-02
 -3.7493950e-01   9.3474388e-02
  1.4143001e-01   9.3874045e-02
  1.4620696e-01   8.1612252e-02
 -4.3499103e-01   8.3622783e-02
 -7.5231695e-01   9.3531244e-02
  1.0251522e+00   7.9457827e-02
  1.1531755e-01   9.7858824e-02
 -4.5009509e-01   9.3775280e-02
  7.7384901e-01   9.2958726e-02
  9.0334719e-01   8.7061845e-02
 -4.6520892e-01   9.6015744e-02
  6.7785662e-01   8.1876673e-02
 -7.7075148e-01   9.6295722e-02
 -2.5478387e-01   9.5741384e-02
  1.0183054e+00   9.4424993e-02
  4.9991238e-01   9.2154175e-02