  4.0537757e-01   9.5052280e-02
 -1.1367841e+00   9.6034050e-02
  1.1920249e-01   8.4119000e-02
 -1.8018910e-01   1.0000000e-01
  2.6066396e-01   9.6520931e-02
 -2.4452384e-01   9.6629739e-02
 -7.0309711e-01   8.9151584e-02
 -3.3265856e-01   8.8657506e-02
  6.8380743e-01   9.6876130e-02
 -4.9376357e-01   9.5536746e-02
 -7.2418517e-01   8.6330853e-02
  2.0493259e-01   9.5478602e-02
 -9.5697403e-02   9.7370200e-02
  6.5873754e-01   9.3943231e-02
 -4.3925974e-01   9.9560484e-02
 -1.5806296e-01   9.1268010e-02
 -8.3226752e-01   8.9788586e-02
 -2.3315419e-01   8.5753173e-02
 -7.6242709e-01   9.3598314e-02
  8.9841790e-02   9.9315025e-02
 -5.6811142e-01   9.7746037e-02
 -3.0969527e-01   8.8846125e-02
 -6.0260993e-01   8.4937401e-02
 -1.0281097e+00   9.9848688e-02
  3.8948953e-01   9.0938658e-02
  2.9997024e-01   8.2904264e-02
  3.3686459e-01   9.7356334e-02
  7.1562546e-01   9.5848881e-02
 -1.0861176e+00   9.6474387e-02
 -4.5492667e-01   1.0000000e-01
  2.5178686e-01   8.7241285e-02
  4.8337314e-01   9.7166166e-02
  4.9354106e-01   1.0000000e-01
 -1.5303610e-01   9.7242206e-02
 -9.1609322e-02   9.0857744e-02
  9.4518757e-01   9.7066075e-02
 -8.0936521e-01   9.5021337e-02
 -3.8103735e-01   9.8295942e-02
  3.5960546e-01   9.2409521e-02
 -7.5584185e-01   9.4770998e-02
  1.2523321e+00   9.2460722e-02
  4.3916830e-01   1.0000000e-01
 -2.6039326e-01   8.1103101e-02
  6.9791949e-01   8.3037630e-02
 -9.1663784e-01   9.0718970e-02
  7.2821206e-01   9.6620023e-02
 -8.3564234e-01   9.3415216e-02
  7.8045195e-01   9.2603624e-02
 -3.7609956e-01   1.0000000e-01
  3.8844904e-01   8.2298972e-02
  2.2623309e-01   9.9789530e-02
  1.8117011e-02   9.8701485e-02
 -3.1981787e-01   9.5786773e-02
  3.7858263e-01   9.7718149e-02
 -4.6213913e-01   9.7387351e-02
 -4.5422798e-01   9.5185257e-02
  3.3509332e-01   9.2075445e-02
  3.4520605e-01   9.4450258e-02
  3.2675719e-01   9.9621750e-02
  3.0099973e-01   9.5835142e-02
  8.6890268e-01   8.8605270e-02
  7.9487938e-01   9.1700226e-02
  4.5619670e-01   9.2124246e-02
 -9.0954244e-01   9.9010788e-02
 -9.7655088e-01   9.6425407e-02
  2.2513832e-01   9.1127440e-02
  2.2431266e-01   9.9366412e-02
  2.0121412e-01   8.8457227e-02
 -2.7992275e-01   1.0000000e-01
 -1.7090899e-01   8.7929830e-02
  5.2193838e-01   9.8068759e-02
 -1.0816636e+00   9.2434578e-02
 -9.1990989e-01   1.0000000e-01
  1.5610082e-01   8.9210726e-02
  5.4351246e-01   1.0000000e-01
  3.2454425e-01   7.9634480e-02
 -7.1728468e-01   9.4896935e-02
 -8.7698638e-01   9.3956813e-02
 -3.3494624e-01   9.7383901e-02
 -7.7732801e-01   8.2924224e-02
 -8.4757596e-01   9.8716550e-02
 -3.9649987e-01   9.8354422e-02
  1.4727148e-01   9.9974103e-02
  4.8505279e-01   9.7644925e-02
  6.7150122e-01   1.0000000e-01
  1.6027769e-01   9.1612943e-02
 -1.0757596e+00   9.3137935e-02
 -1.8504018e-01   7.7303477e-02
 -1.0645254e-01   9.2782527e-02
 -6.7470819e-01   9.6174113e-02
  3.2177395e-01   9.5361494e-02
 -4.2631712e-02   9.5357880e-02
 -5.8055013e-01   9.9163875e-02
 -3.3926558e-01   9.0558872e-02
 -2.2344030e-01   9.7096674e-02
 -1.3125978e+00   9.6993983e-02
  5.3143787e-01   9.4302833e-02
 -5.7173592e-01   1.0000000e-01
 -7.2719797e-02   8.7405130e-02
  1.0399426e-02   9.6946873e-02
  6.8221301e-01   9.8042391e-02
  3.6286080e-01   9.8201185e-02
  7.7091873e-01   1.0000000e-01
 -7.7447045e-01   9.4783396e-02
 -5.2137071e-01   9.0904191e-02
 -2.2556381e-01   9.3846530e-02
 -7.8753227e-01   8.7064631e-02
 -4.6916604e-01   8.7784484e-02
  2.5137731e-01   8.5075699e-02
  4.4093621e-01   9.9447757e-02
 -4.2260122e-02   9.5785297e-02
  8.0451804e-01   9.3607448e-02
 -2.9324552e-01   9.7331740e-02
 -9.0133184e-01   8.8362657e-02
 -4.0747872e-01   8.5054286e-02
  9.8687863e-01   9.1343798e-02
 -3.4006855e-01   9.1722690e-02
  7.8430957e-01   1.0000000e-01
 -3.7419543e-01   9.9843964e-02
  2.1470356e-01   8.3775267e-02
  3.9795643e-01   9.7165264e-02
  2.0838863e-01   9.4136126e-02
  8.5509586e-01   9.4875142e-02
  1.2655072e-01   9.4822295e-02
 -4.5966667e-01   9.8282479e-02
  9.5687650e-02   9.2780888e-02
 -4.7563583e-01   9.1790274e-02
  4.3214377e-02   9.7920842e-02
  9.7572553e-01   9.1525629e-02
 -6.1822456e-01   9.7279221e-02
 -1.9590238e-01   9.5281877e-02
 -3.1155771e-01   8.7102428e-02
  3.4633678e-01   9.7984768e-02
  5.9524113e-01   9.5859058e-02
 -1.7627917e-01   9.6219577e-02
  4.3776411e-01   7.9927839e-02
 -7.7833045e-01   9.4007082e-02
 -3.3292791e-01   9.9767804e-02
 -6.9972739e-02   9.4447471e-02
  9.3063039e-01   8.9682356e-02
 -4.7677600e-01   8.7251812e-02
  1.0326109e-01   9.3980134e-02
  9.1667902e-01   9.2923850e-02
  3.8171399e-01   8.8437803e-02
 -9.5141523e-02   9.5902935e-02
  3.1191221e-01   8.3081879e-02
 -8.4022743e-01   9.5376752e-02
  5.5733228e-01   8.6628772e-02
  7.8883708e-01   9.7532660e-02
  7.7053255e-01   8.8104978e-02
  5.7327938e-01   8.7197863e-02
 -8.9037837e-03   9.0218604e-02
  8.8241106e-01   7.8285523e-02
 -3.1931669e-01   9.5426492e-02
  6.4355946e-01   8.9079276e-02
  2.5373825e-01   8.8609308e-02
  4.1342172e-01   9.7149752e-02
 -8.1199610e-01   9.5688865e-02
 -4.2646828e-01   9.6148282e-02
 -2.5524828e-01   9.1409273e-02
  8.4368266e-02   8.9192927e-02
 -2.0092689e-01   8.5237965e-02
  1.0150549e+00   9.6277721e-02
  2.8084623e-02   9.9841617e-02
  4.3193501e-01   8.9012057e-02
 -2.7471188e-01   9.3072414e-02
 -4.8365813e-01   8.4586903e-02
 -7.8779888e-01   9.5798068e-02
  3.4392199e-01   9.6045628e-02
 -9.1609776e-02   8.5400395e-02
  3.8807380e-01   8.1252769e-02
 -6.2639123e-01   9.9133559e-02
  1.3249059e-02   8.8470370e-02
  2.4617735e-01   9.0096109e-02
  1.1110152e+00   8.4434196e-02
  7.3908919e-01   9.9765420e-02
  9.6215844e-02   9.0602897e-02
  9.5691788e-01   9.2488132e-02
  7.3450834e-01   9.1845110e-02
 -9.7108698e-01   9.8292150e-02
 -3.7918633e-01   9.9613428e-02
 -2.3886399e-01   1.0000000e-01
 -1.7766418e-01   9.8700710e-02
  3.0772486e-01   9.5434234e-02
 -3.5002279e-01   8.2662217e-02
 -5.3042775e-01   8.1609137e-02
 -1.6097166e-01   9.5424175e-02
 -9.5401782e-01   9.7814098e-02
 -4.8523995e-01   9.1660514e-02
 -3.2083425e-01   9.1798156e-02
  8.6796135e-01   8.5666455e-02
 -4.3207240e-01   9.9756263e-02
 -6.8709528e-01   8.7311663e-02
 -1.6692808e-01   1.0000000e-01
 -8.3036172e-01   9.2260152e-02
 -7.6115322e-01   9.7405851e-02
  1.0381538e-01   8.9009143e-02
  7.1808666e-01   9.4057538e-02
 -8.9074528e-01   9.7274721e-02
 -9.1400045e-01   9.5928743e-02
 -1.3083275e-02   9.6346430e-02
 -2.8570974e-01   1.0000000e-01
  2.8946063e-01   8.4574878e-02
  6.3760108e-01   1.0000000e-01
  6.7130971e-01   9.2766806e-02
  1.0782076e+00   9.5720701e-02
  7.8496456e-01   9.2102773e-02
 -1.5246753e-01   8.9937747e-02
 -9.4069570e-01   9.6943438e-02
  5.1328003e-01   9.9646032e-02
 -1.1643928e-02   8.1540667e-02
 -8.2101905e-01   8.9772858e-02
  7.0693690e-01   9.0714663e-02
  9.7854756e-02   9.5969230e-02
 -4.7825113e-01   9.9073298e-02
  4.6578267e-01   9.7927980e-02
  5.5131859e-01   9.2451982e-02
  7.3519301e-01   1.0000000e-01
 -8.2241708e-01   9.2456050e-02
  5.2678072e-01   9.1619618e-02
  6.9006497e-01   9.7683012e-02
  5.7881927e-01   9.2546389e-02
  9.0552288e-01   9.2611901e-02
  5.3050166e-01   9.6098185e-02
  8.1376153e-01   9.4387740e-02
 -7.4483223e-02   9.6150436e-02
 -4.8217633e-01   9.4499379e-02
 -1.1712386e-01   9.5450170e-02
 -4.8281154e-01   9.3648285e-02
 -7.4939185e-01   8.9593373e-02
 -3.0401341e-05   9.7617209e-02
  4.4095766e-02   8.8287659e-02
 -1.0410531e-01   9.7016990e-02
 -5.9989709e-01   9.2803724e-02
  4.2978430e-01   9.5169246e-02
 -1.0345098e+00   9.9201165e-02
  6.3267328e-02   9.4814464e-02
  1.3369660e-01   9.3719602e-02
  5.1528472e-01   9.9733390e-02
  5.9775728e-01   9.4326548e-02
 -9.8556489e-01   9.7426824e-02
  7.5399292e-01   9.4042398e-02
 -5.5756098e-01   9.5952623e-02
  8.5150795e-03   1.0000000e-01
  9.3924077e-03   8.9154407e-02
 -8.9090651e-01   9.3653098e-02
  6.6665089e-01   9.3258619e-02
  1.9050935e-01   9.9392593e-02
  6.9055551e-01   1.0000000e-01
  1.0665984e+00   9.8921508e-02
  9.0892291e-01   1.0000000e-01
  1.1128852e+00   9.5425270e-02
 -8.4488809e-02   9.7728826e-02
  3.9538279e-01   8.8282637e-02
  7.6591611e-01   9.8370425e-02
  2.8542140e-01   9.3496546e-02
 -8.0802631e-01   9.7484559e-02
  6.1745745e-01   9.3658812e-02
  6.0138386e-01   9.1116056e-02
  6.0473919e-01   9.3481362e-02
 -1.2901138e-01   8.3864689e-02
  2.4493742e-01   9.5901452e-02
  2.8747296e-01   9.5741287e-02
 -9.8882443e-01   8.4877923e-02
 -5.6662017e-01   8.6266793e-02
 -1.8155323e-01   9.6303172e-02
  4.1310301e-01   9.8359071e-02
 -1.0412958e+00   9.5818646e-02
 -5.4782099e-01   9.4811507e-02
  7.0445395e-01   8.8700861e-02
 -5.0636643e-01   9.9480003e-02
 -4.5411140e-01   8.3062641e-02
  6.8334609e-02   9.3993858e-02
 -2.8473803e-01   9.5896184e-02
 -6.0536611e-01   9.6432894e-02
  2.8046280e-01   9.4462857e-02
 -9.6896726e-01   8.7345235e-02
  9.4219822e-01   9.2376456e-02
 -2.3751262e-01   9.2534937e-02
  7.0298022e-01   9.2490777e-02
  6.2326139e-01   9.7982235e-02
 -5.1332229e-01   9.2995040e-02
 -2.1734335e-01   9.6929610e-02
 -4.1178074e-01   9.7834788e-02
  4.3372270e-01   9.5316708e-02
  1.0486056e-01   9.8564036e-02
 -1.9464426e-01   9.8343231e-02
  1.7590996e-02   9.0928286e-02
  7.3118769e-02   9.4372652e-02
 -1.0630786e-01   9.1567174e-02
 -5.0184923e-01   9.5450386e-02
 -6.1829394e-01   9.9430054e-02
  2.0526506e-01   1.0000000e-01
  7.3023343e-01   8.6965375e-02
  4.9511874e-01   9.6106946e-02
  1.6001460e-01   9.8316617e-02
  2.5712532e-01   1.0000000e-01
 -6.0636282e-01   9.1594540e-02
 -2.7078110e-01   9.3942255e-02
 -1.2552167e-01   9.0789460e-02
  1.6972850e-01   8.2354128e-02
  4.1631186e-01   9.0459034e-02
 -2.0808196e-01   9.5301159e-02
 -2.7743661e-01   9.5609538e-02
  7.1791321e-01   9.4142385e-02
  5.4816109e-01   9.7559161e-02
 -7.2604775e-01   9.7067848e-02
  2.2151497e-01   8.6698741e-02
 -6.9497627e-01   9.9252969e-02
  6.2197828e-01   9.7612172e-02
 -9.4546968e-01   9.3299218e-02
 -4.0686476e-01   9.6372254e-02
  4.5550537e-01   9.6549720e-02
 -9.3016070e-01   9.4334573e-02
  9.7187585e-01   1.0000000e-01
 -6.1560196e-01   7.5702012e-02
  8.2108098e-01   1.0000000e-01
  1.4621039e-01   8.7323554e-02
  5.1307857e-01   9.6425705e-02
  4.1243893e-01   9.1902435e-02
 -4.5214948e-01   8.9666098e-02
  3.8920867e-01   9.3905404e-02
  2.2761379e-01   8.4669486e-02
  1.5052283e-01   9.5543414e-02
 -6.0339916e-01   1.0000000e-01
  1.1274321e+00   9.9456392e-02
 -1.1666216e+00   9.5317021e-02
  3.2159171e-01   8.3416812e-02
  7.8773361e-01   9.0810180e-02
 -1.6491398e-01   9.0144470e-02
  3.5586369e-01   9.4610699e-02
 -8.7409234e-01   8.4582411e-02
  2.8379679e-01   9.3201309e-02
  2.7761985e-02   9.2529044e-02
  3.2868052e-01   9.2377543e-02
 -1.0984322e-01   9.6847750e-02
 -9.8806399e-01   8.8017441e-02
 -6.9364852e-01   9.8687224e-02
  5.0425476e-01   9.6185558e-02
 -1.0081499e+00   9.6163854e-02
 -1.7239709e-01   9.0482883e-02
 -7.2266763e-01   8.9240082e-02
 -5.7365835e-01   9.7189710e-02
 -5.8907434e-02   8.9507990e-02
  1.0773631e+00   9.6934251e-02
  1.2570033e+00   9.7865418e-02
  5.3758818e-01   9.0662219e-02
 -6.7523539e-02   1.0000000e-01
  2.0041184e-01   9.6606821e-02
  8.2594857e-02   1.0000000e-01
 -6.0767794e-01   8.4800616e-02
 -3.4540835e-01   9.1760047e-02
  4.9235526e-01   9.9144928e-02
 -1.7347917e-01   9.5349714e-02
 -8.5530478e-01   9.6052378e-02
 -8.7936455e-01   9.9005073e-02
  5.0673056e-01   9.2581324e-02
  6.7951202e-01   8.7133989e-02
  1.2770918e-01   8.7811507e-02
 -4.7204536e-01   8.7810293e-02
  5.3816295e-01   9.5133960e-02
 -2.6287597e-01   9.5561497e-02
  6.5690035e-01   9.9064082e-02
 -7.7880278e-02   9.0689301e-02
  1.7715831e-01   9.6136414e-02
  8.9935750e-01   1.0000000e-01
 -6.5532535e-01   8.3339542e-02
  8.0332255e-01   8.9465342e-02
 -6.8422759e-01   9.7618312e-02
 -4.1994235e-01   9.6014686e-02
  5.7235861e-01   9.3564346e-02
  2.8603816e-01   9.4538368e-02
 -8.0611020e-02   9.6700810e-02
  2.7814725e-01   1.0000000e-01
 -2.0833291e-01   8.4980167e-02
  8.3169293e-01   8.9562573e-02
 -3.7693116e-01   9.8086983e-02
 -8.3580881e-02   8.6261719e-02
 -6.5439415e-01   9.8710902e-02
 -4.0915060e-01   9.3151756e-02
 -9.5673782e-01   9.2940249e-02
  1.2755578e+00   9.9777855e-02
 -6.7329127e-01   8.4959656e-02
 -1.1793303e+00   9.5684528e-02
  6.9381982e-02   9.2530183e-02
 -6.5918773e-01   8.4410779e-02
 -6.1773872e-01   9.5906518e-02
  9.9928863e-02   8.9539833e-02
 -3.8720974e-01   8.7952942e-02
 -8.7332326e-01   9.2394814e-02
  1.0175472e-01   9.5803611e-02
 -1.0706484e+00   9.9949427e-02
 -5.3285676e-01   9.4594561e-02
 -6.8757558e-01   8.3266258e-02
  1.4260255e-01   9.0461366e-02
 -8.9331341e-01   9.7719252e-02
  8.1161183e-01   9.6024312e-02
 -8.7374395e-01   9.5245726e-02
 -7.5126833e-01   8.5712075e-02
  7.5260001e-01   9.8687105e-02
 -5.3844327e-01   8.7468795e-02
 -4.1147962e-01   9.2103846e-02
 -2.2754820e-01   8.8529624e-02
  1.0486480e+00   9.7547688e-02
 -2.3122232e-01   9.8038971e-02
 -5.6953537e-01   9.1950648e-02
 -5.2489158e-02   9.3164533e-02
 -3.2658156e-02   9.4079576e-02
 -7.7852464e-01   9.7438417e-02
 -1.1225060e+00   9.2164494e-02
  3.9270246e-01   9.4202526e-02
  1.4587736e-01   8.7141812e-02
 -1.1399247e-01   9.3920857e-02
 -8.0358356e-01   9.9646032e-02
 -6.2027258e-01   9.7825564e-02
  8.6209208e-01   9.6593805e-02
  1.8703693e-01   9.6802592e-02
  1.2936291e+00   9.4622470e-02
  1.5896633e-01   9.2558451e-02
 -2.9600579e-01   9.8867841e-02
 -6.3880241e-01   9.6511506e-02
 -5.1437223e-01   8.6760312e-02
 -6.3033187e-01   9.3243636e-02
  3.4958813e-01   9.2724927e-02
  2.4936885e-01   8.5202448e-02
 -3.8580862e-01   9.3092360e-02
  5.2292231e-02   9.6465096e-02
  7.9613703e-01   8.8639215e-02
 -1.2271625e+00   9.6690781e-02
  1.2971041e-01   8.8346429e-02
  2.4732716e-01   9.4540797e-02
 -8.9952624e-01   8.4879465e-02
  1.7972697e-01   9.5450379e-02
  4.4434658e-01   9.3322977e-02
  7.1232194e-01   9.2288829e-02
  6.7903303e-02   9.9586554e-02
 -4.7276464e-01   8.9655183e-02
 -2.8718957e-01   9.7286344e-02
  7.2098482e-01   9.0235397e-02
  7.3985976e-01   9.3729727e-02
  5.1687145e-01   9.1819488e-02
  7.2500587e-02   9.7698778e-02
 -1.1131886e+00   9.8419957e-02
  1.6608299e-01   8.9567848e-02
 -6.8838668e-01   9.3779407e-02
  5.3059423e-01   9.5181100e-02
 -1.0207719e-01   9.6706614e-02
  2.8493202e-01   9.7148873e-02
 -6.5275490e-01   9.4625592e-02
 -6.8503737e-01   9.9603370e-02
  3.7827215e-01   9.6791849e-02
  1.1014595e-01   8.9855723e-02
 -6.5908891e-01   9.8585322e-02
 -6.1178583e-01   9.9718474e-02
  1.0534146e+00   9.8775595e-02
 -4.7584030e-01   9.7945794e-02
 -2.2936527e-01   8.9144520e-02
  7.6331681e-01   8.7059371e-02
 -5.5534440e-01   1.0000000e-01
 -4.9051878e-01   9.1778629e-02
 -4.6935764e-01   8.6486042e-02
  1.0015965e+00   8.2950525e-02
 -4.2652819e-01   8.8530861e-02
 -8.3587569e-01   9.2320874e-02
 -7.3354083e-01   9.8673157e-02
  2.5952935e-01   8.4622137e-02
 -1.0255089e+00   9.6339598e-02
 -5.3777575e-01   9.6621640e-02
 -6.9782931e-01   8.0428064e-02
 -3.8573632e-01   9.8865971e-02
 -4.5996004e-01   9.7887099e-02
 -8.1243539e-01   8.8069111e-02
 -5.5790973e-01   9.7607374e-02
 -4.5291647e-01   9.1634914e-02
 -3.4963834e-01   1.0000000e-01
 -9.8199889e-02   9.6150763e-02
  3.4140947e-01   9.0552375e-02
 -4.0407419e-01   8.3912440e-02
  1.0640252e+00   9.9185131e-02
  5.9273994e-01   8.9316934e-02
  2.5110608e-01   9.8581262e-02
 -3.6062977e-01   9.2252813e-02
  2.2200461e-01   9.1831416e-02
  8.5655051e-01   9.0251610e-02
 -5.1503497e-01   9.6610941e-02
 -1.7804916e-01   1.0000000e-01
 -6.4755201e-02   9.0332925e-02
  1.8674690e-01   9.7980008e-02
 -6.6537851e-01   8.2662895e-02
  1.4805562e+00   9.7861871e-02
 -7.4519622e-01   9.8452076e-02
  2.3362286e-01   7.9961464e-02
  1.0270078e+00   8.8110030e-02
  6.6070902e-01   9.5986046e-02
  1.8218532e-01   8.9752868e-02
 -4.0838709e-01   1.0000000e-01
 -6.0850847e-01   9.3893625e-02
 -9.4272310e-01   9.5350660e-02
  7.3933995e-01   8.3903417e-02
 -3.3334979e-01   9.6894659e-02
 -2.9876953e-01   8.8135600e-02
  1.7738912e-02   9.3580350e-02
 -7.1427412e-02   9.4404712e-02
 -4.7039953e-01   9.4432190e-02
  2.4253642e-02   9.5234126e-02
  5.9183747e-01   1.0000000e-01
 -1.0015035e+00   9.9553034e-02
 -1.1589760e+00   8.8639371e-02
 -1.2411113e+00   9.9241272e-02
 -5.9561247e-01   9.5621154e-02
  8.4687537e-01   9.3092829e-02
  6.0642567e-02   9.4209664e-02
  1.0734153e-01   9.0434916e-02
  9.5928681e-01   9.3465522e-02
  7.1386600e-01   9.4790205e-02
 -3.9414230e-01   9.0357088e-02
  5.7318193e-01   8.4599696e-02
 -8.4997755e-01   9.3258500e-02
 -4.0888199e-01   8.9707464e-02
  3.7173405e-01   9.3524389e-02
  8.0877942e-01   8.9844070e-02
 -4.8810807e-01   9.8649196e-02
  8.2605588e-01   9.9215746e-02
  1.2196111e-01   9.8954752e-02
  6.5598464e-01   8.0025271e-02
 -5.0693119e-01   8.9863256e-02
  6.0240948e-01   9.5937572e-02
 -7.5519514e-01   8.9624770e-02
  4.1512543e-01   9.6172601e-02
  9.2333496e-02   9.7916886e-02
  7.5838342e-02   9.2948243e-02
 -3.7266815e-01   9.9869303e-02
  3.4466758e-01   9.0894967e-02
 -2.4218684e-02   1.0000000e-01
 -1.6954176e-02   8.9489639e-02
  1.1183152e+00   9.6327901e-02
 -9.6121299e-01   9.4286300e-02
  7.4455875e-01   9.5335081e-02
 -2.5480869e-01   8.2629964e-02
 -1.3497391e-01   8.8301651e-02
  8.4892936e-02   9.1342621e-02
  2.4357894e-02   8.9716047e-02
  1.1201630e+00   9.8758712e-02
 -3.1631061e-01   9.9603586e-02
 -3.4521300e-01   9.0079375e-02
  2.6986068e-01   9.9300444e-02
  4.0358853e-01   8.3195761e-02
 -4.5803979e-01   9.1500275e-02
 -7.3867911e-01   8.6820528e-02
  4.9467194e-01   9.3989708e-02
  6.7902917e-01   9.2772581e-02
  5.1223743e-01   9.1629766e-02
 -4.6257740e-01   9.8603293e-02
 -1.6993158e-01   8.9240886e-02
  7.3973930e-01   9.7063661e-02
  1.5871452e-01   8.7703191e-02
 -9.2043734e-01   8.2259960e-02
 -1.9524124e-01   1.0000000e-01
 -1.6129445e-01   8.7251909e-02
  3.6863569e-02   9.3522318e-02
  2.1470092e-01   9.0314731e-02
 -5.0208193e-01   9.5654160e-02
  2.5900674e-01   9.1946147e-02
 -8.7962645e-01   9.4450720e-02
  7.8956515e-01   9.0225801e-02
 -4.9079755e-01   8.5129619e-02
  2.8584722e-01   9.5835149e-02
 -1.5792945e-01   9.6995510e-02
  7.5888151e-01   9.3333840e-02
  7.9341751e-01   9.4320334e-02
  4.8925346e-01   9.4765931e-02
 -6.6244149e-01   9.6724324e-02
  5.9459406e-01   9.8497823e-02
 -4.7167450e-01   9.3578026e-02
 -2.5678438e-03   9.2109323e-02
  5.7111657e-01   9.4643012e-02
 -9.2389739e-01   8.9216553e-02
  4.0990946e-01   9.3046069e-02
  6.9180828e-01   9.2287108e-02
 -1.9727987e-01   8.8288851e-02
 -3.6406270e-01   8.2684293e-02
 -6.0595721e-01   8.5296690e-02
  8.3679134e-01   9.7845212e-02
  9.2083454e-01   9.7484976e-02
  8.2133806e-01   8.4712602e-02
  4.7479063e-01   8.2861781e-02
  5.9019977e-01   8.7085545e-02
  5.2679187e-01   9.8908730e-02
  8.7522703e-01   9.2517585e-02
  1.6204108e-01   9.6229047e-02
  1.4650284e-01   8.7452233e-02
 -4.7074899e-02   9.6213169e-02
  2.0444830e-01   8.2745373e-02
 -5.1056296e-01   9.8271154e-02
  2.8709617e-01   9.3641564e-02
  5.7714278e-01   9.0208828e-02
  1.5726130e-01   9.5694110e-02
 -2.6400578e-01   8.9230105e-02
 -1.0889033e-01   9.4598979e-02
  8.0166155e-01   9.0900898e-02
  3.1130108e-01   8.5998736e-02
  7.4943149e-01   9.6141055e-02
  3.6318111e-01   9.6881315e-02
  5.0292176e-01   9.4778277e-02
 -4.0767303e-01   9.5263004e-02
  1.4217703e+00   9.2805535e-02
  7.4166614e-01   9.1760516e-02
 -2.3790762e-01   8.1754968e-02
  6.7585093e-01   9.3644530e-02
 -1.7820245e-01   8.9297436e-02
 -6.3517255e-01   1.0000000e-01
 -6.3654244e-01   9.8187394e-02
 -7.7360731e-01   9.3892448e-02
  4.6563485e-01   8.2770742e-02
  1.7649803e-02   9.9886410e-02
 -3.3394784e-01   9.7013429e-02
 -3.5247368e-01   9.3230255e-02
 -3.9611652e-01   9.4022706e-02
  8.2041907e-01   8.7420560e-02
  5.6060350e-01   9.7525798e-02
  1.1232306e+00   9.3450621e-02
  7.3529291e-01   9.9415086e-02
  3.2128885e-02   1.0000000e-01
 -4.7564325e-01   8.6325057e-02
 -9.3470138e-01   9.3670473e-02
  1.1311975e+00   8.6907893e-02
 -1.0116153e+00   9.4377749e-02
 -2.3043889e-01   9.2765048e-02
  4.1287506e-01   9.4379440e-02
  2.7842340e-01   9.3146630e-02
 -1.0064218e+00   9.5877483e-02
 -7.3331875e-01   9.1194950e-02
  5.9068704e-01   8.9548878e-02
 -7.9650372e-01   9.1410138e-02
  9.1379350e-01   9.7505987e-02
  8.8016385e-01   9.5841438e-02
  5.4436475e-01   9.5834769e-02
 -2.1559025e-01   9.7008891e-02
 -6.0236883e-01   8.7558262e-02
  9.1883367e-01   9.5953606e-02
  3.5622615e-01   9.0450719e-02
  8.8301726e-02   8.4034383e-02
 -7.7724737e-01   9.5541663e-02
  7.7313268e-01   9.3940318e-02
 -7.6700306e-01   8.2767047e-02
 -2.5503170e-01   8.3313487e-02
 -3.5936964e-01   9.4397247e-02
  1.0848103e+00   9.1543697e-02
  4.7926039e-01   9.7034648e-02
  8.8751292e-01   9.7719938e-02
 -7.4115723e-01   9.4667204e-02
  5.1211309e-01   8.6388968e-02
  9.3029755e-01   9.7080551e-02
 -1.2351519e+00   9.8773099e-02
 -1.1787800e+00   9.9487573e-02
  9.7804397e-01   9.8212533e-02
 -1.0854235e-01   9.2256844e-02
 -3.0055693e-01   9.1443196e-02
  5.5886585e-01   8.8176444e-02
  4.6243319e-01   9.6677743e-02
 -2.2356820e-01   9.8210849e-02
  9.0075201e-01   8.7985277e-02
  3.9262742e-02   9.4174884e-02
  6.1222714e-01   9.5952921e-02
  9.1695321e-01   8.8695556e-02
  2.6559737e-01   9.9196821e-02
 -5.6798124e-01   8.9588717e-02
 -1.5783316e-01   9.9605680e-02
 -4.1203284e-01   8.3719149e-02
 -5.0138491e-01   9.7741552e-02
  4.6628278e-01   9.6157581e-02
  1.3839993e+00   9.4752014e-02
 -4.0989026e-02   8.9342535e-02
 -3.6940724e-01   9.8831408e-02
  8.0061704e-01   9.1327995e-02
 -8.7799978e-01   9.9630855e-02
  7.9242116e-01   9.8896816e-02
  2.5047928e-01   9.7946353e-02
 -6.6364294e-01   9.7952329e-02
  7.7126843e-01   9.1752484e-02
  1.7201075e-01   8.8504389e-02
  8.7455046e-01   9.4621755e-02
 -8.5008687e-01   9.0443380e-02
  6.9331877e-02   9.9552028e-02
 -2.5283056e-01   8.9423567e-02
  2.8394088e-01   9.0945713e-02
 -2.2493450e-01   9.6137181e-02
 -1.4279439e+00   9.7280987e-02
 -9.5284534e-01   9.6254148e-02
  9.3967408e-01   9.2997320e-02
  5.6436175e-01   9.6668035e-02
 -1.6392164e-01   9.8618612e-02
  1.2357240e+00   9.7628966e-02
  8.2733035e-01   9.7304672e-02
 -1.0503333e-01   1.0000000e-01
 -2.0351946e-01   8.8400982e-02
 -6.2814397e-01   8.2515329e-02
  7.2276628e-01   9.2216082e-02
 -4.1874528e-01   9.4998665e-02
 -6.8649644e-01   9.5775165e-02
 -9.6694648e-02   8.8243432e-02
 -6.8544346e-01   9.2240416e-02
  3.9068285e-01   8.1820436e-02
  2.4607635e-01   1.0000000e-01
 -5.4008901e-01   9.9635698e-02
  2.3483045e-01   8.6316250e-02
  4.3134245e-01   9.8247990e-02
 -1.0893762e+00   8.9140370e-02
  6.2536138e-01   9.7270519e-02
  4.4237059e-01   9.4524264e-02
  7.0308089e-01   9.6200481e-02
 -4.3410337e-01   8.8845462e-02
  3.7607756e-01   1.0000000e-01
 -2.8881490e-02   8.8759273e-02
 -8.0353642e-01   8.8489860e-02
  9.5145929e-01   9.6009612e-02
  3.2841694e-02   8.9553967e-02
 -6.1993057e-01   8.1980109e-02
 -1.8319784e-01   9.3753986e-02
  3.6792254e-01   9.9155627e-02
 -4.2199561e-01   9.5823839e-02
 -4.6710590e-01   8.4985740e-02
 -1.5775168e-01   8.3703026e-02
 -3.0691347e-01   9.9184826e-02
  9.8062468e-01   9.3886659e-02
 -1.0330533e-01   9.6752189e-02
  8.3817202e-01   1.0000000e-01
 -9.2221266e-01   8.9083962e-02
 -8.3652258e-01   1.0000000e-01
 -6.7207700e-01   8.3958402e-02
 -3.5926554e-02   8.0084793e-02
 -3.1436130e-01   8.8352166e-02
  3.4391931e-01   9.1105796e-02
  3.8455805e-01   1.0000000e-01
 -4.4835135e-01   9.8155461e-02
 -5.7363713e-01   8.4272556e-02
  7.5516701e-01   9.7072974e-02
 -4.5741418e-01   9.2199616e-02
 -6.3040668e-01   9.8171629e-02
  1.1682516e-01   8.7560728e-02
  4.5066699e-02   9.8381139e-02
 -3.5839179e-01   9.9417321e-02
 -4.4673878e-01   9.7621344e-02
  4.7038662e-01   8.9166462e-02
  3.9608973e-01   8.6970106e-02
  4.3962013e-02   9.6790880e-02
  3.6435809e-02   9.9875145e-02
  5.9925598e-01   9.1692008e-02
 -9.3354678e-01   7.8268789e-02
  3.9808050e-01   9.6347563e-02
  2.7298012e-01   8.8035308e-02
  2.2924221e-01   9.4001047e-02
 -9.0541482e-01   8.7829478e-02
 -8.2686502e-01   9.2209853e-02
  4.2944211e-01   8.8483855e-02
  1.2061299e+00   9.1794297e-02
 -3.8315415e-01   9.6699648e-02
 -4.7791505e-01   8.7527528e-02
 -4.3149114e-01   1.0000000e-01
 -9.4562149e-01   9.0410158e-02
 -7.2373623e-01   9.7143091e-02
 -2.0301023e-01   9.8509200e-02
  7.4271178e-01   8.3388411e-02
 -1.0459394e+00   9.4076119e-02
  1.0460852e+00   9.5307529e-02
  5.5886179e-01   8.5236423e-02
 -5.3193706e-01   9.6476465e-02
 -6.7239702e-01   1.0000000e-01
 -5.9869498e-01   9.5861852e-02
 -5.7971276e-02   9.5368423e-02
  7.1546659e-02   9.8087445e-02
 -6.6300444e-02   9.9048927e-02
 -1.0497719e+00   8.4422439e-02
 -1.4542556e-01   8.4829852e-02
 -3.1660378e-01   8.8056281e-02
 -3.8742188e-01   1.0000000e-01
  3.0631715e-01   9.2474714e-02
 -8.0234951e-01   8.4544137e-02
 -1.0065337e+00   9.8217629e-02
 -3.4058756e-01   9.4402105e-02
  4.1740319e-01   8.4727071e-02
 -5.0795275e-01   9.7631954e-02
 -1.0981595e-02   9.6162893e-02
  3.8935590e-01   8.6090006e-02
 -1.4156281e+00   9.8803580e-02
 -8.6105359e-01   9.2736997e-02
  6.6821724e-02   9.5237777e-02
  8.9874431e-02   9.3380094e-02
  5.2977508e-01   9.1248699e-02
 -1.0417601e-01   9.7108215e-02
 -6.3805580e-01   9.0496279e-02
  1.1420966e+00   8.8260494e-02
 -5.2617427e-02   9.2138521e-02
  2.2073719e-01   9.9589147e-02
  3.1615291e-02   9.0329453e-02
 -8.2461524e-01   9.8822355e-02
  7.0211071e-01   9.3161523e-02
 -8.2439548e-01   9.0485424e-02
 -7.1496552e-01   9.3748480e-02
  6.7648813e-02   9.4533004e-02
 -3.7283006e-01   9.9553764e-02
  7.3175001e-01   9.1948777e-02
 -8.7829381e-01   9.2500389e-02
  3.5774058e-01   9.8316938e-02
  1.9116455e-01   9.0301111e-02
 -8.3402830e-01   9.7192779e-02
 -4.1860595e-01   8.7107092e-02
  6.3129747e-01   9.5468655e-02
  8.9399838e-01   8.8699900e-02
 -1.1789515e+00   9.0244249e-02
  1.4198518e-01   1.0000000e-01
 -4.8593646e-01   9.9720083e-02
  8.0108249e-01   8.3914950e-02
 -4.8979735e-01   7.7196620e-02
  3.9570409e-01   9.2709981e-02
 -3.1454873e-01   8.6088099e-02
  6.9887370e-01   9.2545412e-02
 -7.8536588e-01   9.5813349e-02
 -5.3307903e-01   9.9085875e-02
 -8.5742193e-01   9.9880092e-02
  7.0211953e-01   9.0517633e-02
 -7.1941698e-01   7.6034367e-02
  1.2739419e+00   9.5536217e-02
 -2.3917729e-01   9.0224095e-02
  4.1533764e-02   1.0000000e-01
  4.8145139e-01   9.0031326e-02
 -2.6339793e-01   8.6407900e-02
 -5.8865410e-01   9.0444125e-02
  3.8777106e-02   9.2667148e-02
 -4.4649425e-01   9.7485580e-02
  5.9104347e-01   9.4807707e-02
  8.9927220e-01   9.1179624e-02
 -2.4369822e-01   9.3480304e-02
 -1.5688774e-01   9.8587334e-02
 -1.5512638e-01   9.5774956e-02
 -1.2028729e+00   9.4366819e-02
  6.1711496e-01   9.1814384e-02
 -4.2086482e-01   9.3637772e-02
 -1.0194628e-02   8.0657750e-02
  6.4791557e-03   8.7432213e-02
 -4.4666889e-01   9.5593877e-02
 -1.7204788e-01   8.9601129e-02
  4.6610016e-01   9.5284380e-02
 -3.8731778e-01   9.4780594e-02
 -2.6472285e-01   9.0494767e-02
  6.0118651e-01   9.7243160e-02
  4.7916445e-01   9.7077437e-02
  2.3240257e-02   9.8924331e-02
  2.5129187e-01   9.8139413e-02
 -5.4963118e-01   9.8158948e-02
  7.4268204e-01   9.6811399e-02
  9.0182340e-01   9.0111382e-02
  6.0059023e-01   1.0000000e-01
  1.8513891e-01   9.3166500e-02
  4.2861617e-01   8.7471135e-02
 -4.9740857e-01   9.0393767e-02
  4.1388828e-01   9.4036199e-02
 -1.3395516e+00   9.2543527e-02
 -3.0429351e-01   9.4206966e-02
  2.6552934e-02   9.8064184e-02
  1.0734679e-01   8.8619426e-02
  4.3445036e-01   9.2564449e-02
 -8.3373636e-01   9.0281904e-02
 -6.8374985e-01   9.4087109e-02
 -4.1948265e-01   9.8736309e-02
  3.7099844e-01   9.0887018e-02
 -6.9271374e-01   9.6323408e-02
 -6.4932966e-01   8.7767303e-02
 -4.1774145e-01   9.7897068e-02
  3.0687028e-01   8.9438684e-02
 -7.5742155e-02   8.7495208e-02
  2.6330549e-02   9.2422321e-02
 -1.4256281e-01   8.6093850e-02
 -1.9625644e-01   9.4260320e-02
 -1.9021605e-01   8.3397456e-02
  4.9169663e-01   8.8923737e-02
 -3.3395210e-01   9.4820663e-02
 -4.0536362e-01   9.1735199e-02
  8.2662694e-02   1.0000000e-01
  5.6688306e-03   1.0000000e-01
  4.6493387e-01   8.7623529e-02
 -3.7460282e-01   7.3142827e-02
 -1.3071057e-01   9.9991880e-02
  1.3258065e-01   9.3335956e-02
  5.1167274e-01   9.3723454e-02
 -2.8490502e-01   8.8486306e-02
 -4.3601394e-01   9.9265844e-02
  8.8726538e-01   9.3733765e-02
  1.3087243e+00   9.5634840e-02
 -3.2469657e-01   9.5528618e-02
  6.0976374e-01   8.9866437e-02
  7.3405224e-01   9.4017386e-02
  4.8826137e-01   9.5705591e-02
  4.2560419e-01   9.1324732e-02
 -8.2601756e-01   9.8118164e-02
  2.9945517e-01   9.7428352e-02
  8.0398566e-01   9.6353881e-02
 -1.5084775e-01   9.9534258e-02
  7.8680432e-01   9.9407479e-02
 -4.5300063e-01   9.6767597e-02
  5.1346600e-01   8.9405313e-02
  7.1829930e-02   9.8393559e-02
  5.3958690e-01   9.2862003e-02
 -1.6805679e-01   8.9095764e-02
  5.1295358e-01   9.7367853e-02
  6.1998671e-01   9.1548033e-02
 -1.0778457e+00   8.2019947e-02
 -1.0214330e+00   8.5837997e-02
  5.5446345e-01   9.5818810e-02
 -6.2377548e-01   9.2114426e-02
  2.7783966e-01   9.0431370e-02
  1.0303534e+00   1.0000000e-01
 -5.8717161e-01   9.7375572e-02
  5.5051208e-02   9.6430056e-02
  5.1838678e-01   9.6920930e-02
 -3.9887063e-02   9.6108206e-02
 -1.4410497e+00   9.8999314e-02
  2.7424687e-01   8.9156650e-02
  7.8793842e-01   8.6837962e-02
 -8.3376372e-01   9.0159498e-02
 -1.0933253e+00   9.1648057e-02
 -2.8018773e-01   9.1832601e-02
  2.4088016e-02   9.6638463e-02
 -9.1938525e-01   9.3035728e-02
 -2.1407618e-01   9.4037823e-02
  4.6560410e-01   9.9853642e-02
 -4.3753350e-01   7.9767324e-02
  4.7465450e-01   9.6466064e-02
 -9.4452403e-02   9.7282149e-02
  7.9066294e-01   8.7718800e-02
 -1.0431391e+00   8.9015283e-02
  1.2571616e-01   9.5592141e-02
 -1.5367389e-01   8.9984320e-02
 -5.9329011e-02   8.1493564e-02
 -2.5997925e-01   9.5999710e-02
  3.6831465e-01   8.5982762e-02
 -2.2635999e-01   1.0000000e-01